# Force and moment coefficients
# dragDir         : (1.0000000000e+00 0.0000000000e+00 0.0000000000e+00)
# sideDir         : (0.0000000000e+00 0.0000000000e+00 -1.0000000000e+00)
# liftDir         : (0.0000000000e+00 1.0000000000e+00 0.0000000000e+00)
# rollAxis        : (1.0000000000e+00 0.0000000000e+00 0.0000000000e+00)
# pitchAxis       : (0.0000000000e+00 0.0000000000e+00 -1.0000000000e+00)
# yawAxis         : (0.0000000000e+00 1.0000000000e+00 0.0000000000e+00)
# magUInf         : 1.0000000000e+00
# lRef            : 1.0000000000e+00
# Aref            : 1.0000000000e+00
# CofR            : (0.0000000000e+00 0.0000000000e+00 0.0000000000e+00)
#
# Time            	Cd                	Cd(f)             	Cd(r)             	Cl                	Cl(f)             	Cl(r)             	CmPitch           	CmRoll            	CmYaw             	Cs                	Cs(f)             	Cs(r)             
1.19998e-05       	1.7180308551e+03	8.5901542754e+02	8.5901542754e+02	5.9259770488e+03	-2.1464539510e+03	8.0724309998e+03	-5.1094424754e+03	-8.7997167877e-19	4.6699403292e-18	-9.6286513315e-19	4.1885077626e-18	-5.1513728958e-18
2.63998e-05       	1.5907572780e+01	7.9537863898e+00	7.9537863898e+00	5.0665733283e+01	-2.5768904637e+01	7.6434637920e+01	-5.1101771279e+01	4.0541833017e-19	1.6385272252e-19	8.3370569265e-19	5.8070556884e-19	2.5300012381e-19
4.36791e-05       	2.8260135982e+00	1.4130067991e+00	1.4130067991e+00	2.7178688555e+00	-3.9324145702e+00	6.6502834258e+00	-5.2913489980e+00	-2.1246301610e-21	2.9056600644e-21	-1.8411342569e-21	1.9850929360e-21	-3.8262271928e-21
6.4415e-05        	3.5509204815e+00	1.7754602407e+00	1.7754602407e+00	-1.3292627353e+01	-3.1653464843e+00	-1.0127280869e+01	3.4809671924e+00	1.8816113288e-19	9.9606104364e-20	3.7683125919e-19	2.8802173396e-19	8.8809525231e-20
8.92981e-05       	2.2063491388e+00	1.1031745694e+00	1.1031745694e+00	-1.0314307072e+00	-1.6654977240e+00	6.3406701680e-01	-1.1497823704e+00	1.6654528243e-20	2.6185156259e-20	3.7578505528e-20	4.4974409023e-20	-7.3959034947e-21
0.000119158       	2.2745664304e+00	1.1372832152e+00	1.1372832152e+00	-9.7333124474e-01	-1.3462554803e+00	3.7292423554e-01	-8.5958985790e-01	-2.3727028697e-20	-3.1069642410e-22	-3.3366285225e-20	-1.6993839037e-20	-1.6372446189e-20
0.000154992       	2.0786544493e+00	1.0393272246e+00	1.0393272246e+00	-4.0893125116e+00	-1.3583856812e+00	-2.7309268304e+00	6.8627057462e-01	-5.4410890791e-20	-3.3885425959e-20	-1.0652840546e-19	-8.7149628689e-20	-1.9378776772e-20
0.000197997       	1.9900913696e+00	9.9504568479e-01	9.9504568479e-01	5.2106694616e-02	-1.4643740777e+00	1.5164807723e+00	-1.4904274250e+00	-3.2538663853e-20	-3.9947606777e-20	-7.1888700852e-20	-7.5891957203e-20	4.0032563504e-21
0.000249599       	1.9760408424e+00	9.8802042122e-01	9.8802042122e-01	2.4493671485e-01	-1.1711394650e+00	1.4160761799e+00	-1.2936078224e+00	-1.6631033047e-21	-2.2837130329e-21	-3.2868025193e-21	-3.9271142925e-21	6.4031177325e-22
0.000311517       	1.9847213346e+00	9.9236066728e-01	9.9236066728e-01	-5.5570647133e-02	-1.1125817488e+00	1.0570111016e+00	-1.0847964252e+00	-3.6424086401e-21	-1.5461713307e-21	-7.1857224062e-21	-5.1390325339e-21	-2.0466898724e-21
0.000385806       	2.0766497808e+00	1.0383248904e+00	1.0383248904e+00	-8.1423954427e-01	-1.2678466294e+00	4.5360708514e-01	-8.6072685728e-01	-8.3724970367e-21	1.3231127566e-20	-1.2741129900e-20	6.8605626162e-21	-1.9601692516e-20
0.00047496        	1.9383176342e+00	9.6915881709e-01	9.6915881709e-01	6.0108368642e-01	-1.0910308762e+00	1.6921145626e+00	-1.3915727194e+00	4.6325041739e-21	-2.2994106819e-22	9.9480061140e-21	4.7440619888e-21	5.2039441252e-21
0.000581944       	2.0880661460e+00	1.0440330730e+00	1.0440330730e+00	1.0410016342e+00	-1.1193759378e+00	2.1603775720e+00	-1.6398767549e+00	5.0888746537e-21	1.8097429995e-20	8.0335508949e-21	2.2114205442e-20	-1.4080654547e-20
0.000710352       	1.9120709786e+00	9.5603548932e-01	9.5603548932e-01	9.2442958551e-01	-1.0421610716e+00	1.9665906571e+00	-1.5043758643e+00	3.9313521972e-21	2.7008363538e-21	8.6534971982e-21	7.0275849528e-21	1.6259122453e-21
0.000864481       	1.8593627543e+00	9.2968137716e-01	9.2968137716e-01	9.7969347407e-01	-1.0112234335e+00	1.9909169075e+00	-1.5010701705e+00	9.8281728927e-21	1.8092145625e-21	1.9505447628e-20	1.1561938376e-20	7.9435092513e-21
0.00104938        	1.8137202112e+00	9.0686010561e-01	9.0686010561e-01	1.0154325259e+00	-9.8329279375e-01	1.9987253196e+00	-1.4910090567e+00	-4.1222867465e-21	-3.4624942149e-21	-8.1161038392e-21	-7.5205461345e-21	-5.9555770466e-22
0.00127118        	1.7902519160e+00	8.9512595802e-01	8.9512595802e-01	6.5450308571e-01	-9.8546875572e-01	1.6399718414e+00	-1.3127202986e+00	1.8035693209e-21	3.5017975621e-21	3.0076818386e-21	5.0056384814e-21	-1.9979566428e-21
0.00153721        	1.7244698519e+00	8.6223492594e-01	8.6223492594e-01	1.0021309854e+00	-9.3246298751e-01	1.9345939729e+00	-1.4335284802e+00	-1.2224352402e-21	9.2967074551e-22	-2.4345846632e-21	-2.8762158608e-22	-2.1469630771e-21
0.00185628        	1.6715786612e+00	8.3578933059e-01	8.3578933059e-01	1.0522576664e+00	-9.0091887696e-01	1.9531765433e+00	-1.4270477101e+00	3.2222738670e-21	1.4989413904e-21	6.8295025493e-21	4.9136926650e-21	1.9158098842e-21
0.0022388         	1.6161282708e+00	8.0806413540e-01	8.0806413540e-01	1.0803763272e+00	-8.6967573168e-01	1.9500520589e+00	-1.4098638953e+00	-2.0685295530e-21	-9.9421502711e-22	-3.9808218916e-21	-2.9846259729e-21	-9.9619591869e-22
0.00269764        	1.5570930223e+00	7.7854651114e-01	7.7854651114e-01	1.0990645703e+00	-8.3707948039e-01	1.9361440507e+00	-1.3866117655e+00	3.4242853177e-21	1.7141919759e-21	6.6730061696e-21	5.0506950607e-21	1.6223111089e-21
0.00324877        	1.4941812056e+00	7.4709060278e-01	7.4709060278e-01	1.1112989317e+00	-8.0314154505e-01	1.9144404768e+00	-1.3587910109e+00	-1.9978367543e-21	5.1337542044e-22	-4.1141715625e-21	-1.5437103608e-21	-2.5704612017e-21
0.00390901        	1.4277144959e+00	7.1385724795e-01	7.1385724795e-01	1.1194406320e+00	-7.6764108747e-01	1.8870817195e+00	-1.3273614035e+00	-7.8809072375e-22	-6.2018846375e-22	-1.8722546933e-21	-1.5563158104e-21	-3.1593888287e-22
0.0046997         	1.3579317965e+00	6.7896589824e-01	6.7896589824e-01	1.1026063956e+00	-7.3043613040e-01	1.8330425260e+00	-1.2817393282e+00	1.6679326513e-21	2.2944300278e-21	3.2805308335e-21	3.9346954446e-21	-6.5416461104e-22
0.00564775        	1.2857746427e+00	6.4288732134e-01	6.4288732134e-01	1.1175714215e+00	-6.9072395134e-01	1.8082953729e+00	-1.2495096621e+00	1.4159534112e-21	6.5696791326e-22	2.8622682806e-21	2.0881020536e-21	7.7416622706e-22
0.00678432        	1.2108815009e+00	6.0544075046e-01	6.0544075046e-01	1.1126177549e+00	-6.4946642814e-01	1.7620841831e+00	-1.2057753056e+00	3.7193527928e-24	1.2625305407e-22	-2.2652327857e-24	1.2512043767e-22	-1.2738567046e-22
0.00814499        	1.1331148332e+00	5.6655741662e-01	5.6655741662e-01	1.1245611000e+00	-6.0585836299e-01	1.7304194630e+00	-1.1681389130e+00	1.1377128834e-23	5.0412097566e-22	1.9203108971e-22	6.0013652052e-22	-4.0810543080e-22
0.00977088        	1.0554260310e+00	5.2771301551e-01	5.2771301551e-01	1.0999567852e+00	-5.6347846800e-01	1.6634352532e+00	-1.1134568606e+00	-7.7268462356e-22	-2.0584983918e-22	-1.5685956613e-21	-9.9014766984e-22	-5.7844799147e-22
0.011712          	9.7719103704e-01	4.8859551852e-01	4.8859551852e-01	1.0827230230e+00	-5.1972392754e-01	1.6024469506e+00	-1.0610854391e+00	-8.5644019446e-23	3.6471548148e-22	-1.5462848696e-22	2.8740123800e-22	-4.4202972496e-22
0.0140365         	8.9964280346e-01	4.4982140173e-01	4.4982140173e-01	1.0646255529e+00	-4.7657517255e-01	1.5412007254e+00	-1.0088879490e+00	6.1971004181e-22	2.9791523266e-22	1.0439848989e-21	8.1990768210e-22	2.2407721677e-22
0.0168121         	8.2458852061e-01	4.1229426031e-01	4.1229426031e-01	1.0447480329e+00	-4.3505237424e-01	1.4798004071e+00	-9.5742639067e-01	8.1844367026e-22	1.0337878562e-21	1.8392300993e-21	1.9534029059e-21	-1.1417280662e-22
0.0201428         	7.5289536103e-01	3.7644768051e-01	3.7644768051e-01	1.0226831146e+00	-3.9548190920e-01	1.4181650238e+00	-9.0682346652e-01	3.0561833651e-22	1.2845789971e-21	6.5004278941e-22	1.6096003918e-21	-9.5955760240e-22
0.0241396         	6.8568969319e-01	3.4284484660e-01	3.4284484660e-01	9.9859465729e-01	-3.5857892613e-01	1.3571735834e+00	-8.5787625478e-01	9.8714426101e-23	1.0320234709e-21	2.1678133659e-22	1.1404141392e-21	-9.2363280263e-22
0.0288926         	6.2469149222e-01	3.1234574611e-01	3.1234574611e-01	9.5071353268e-01	-3.2407584212e-01	1.2747893748e+00	-7.9943260846e-01	-4.0266007851e-22	2.8378429808e-22	-8.6401830573e-22	-1.4822485479e-22	-7.1579345094e-22
0.0344122         	5.7070618060e-01	2.8535309030e-01	2.8535309030e-01	9.3341842011e-01	-2.9496405213e-01	1.2283824722e+00	-7.6167326219e-01	9.5325283419e-22	4.6085396603e-22	1.9537227624e-21	1.4377153472e-21	5.1600741519e-22
0.040781          	5.2333904645e-01	2.6166952322e-01	2.6166952322e-01	8.9674859669e-01	-2.6872452604e-01	1.1654731227e+00	-7.1709882439e-01	-8.2769417555e-22	-3.3284114482e-22	-1.7357324550e-21	-1.2007073723e-21	-5.3502508267e-22
0.0480182         	4.8243029726e-01	2.4121514863e-01	2.4121514863e-01	8.5053703581e-01	-2.4573139564e-01	1.0962684314e+00	-6.7099991354e-01	-6.5775079804e-22	-3.9674396952e-22	-1.3493316721e-21	-1.0714098056e-21	-2.7792186652e-22
0.0560172         	4.4758168503e-01	2.2379084252e-01	2.2379084252e-01	7.9399766510e-01	-2.2591722126e-01	1.0199148864e+00	-6.2291605381e-01	-3.2800908082e-22	-4.0717592438e-22	-6.8509942862e-22	-7.4972563868e-22	6.4626210068e-23
0.0650162         	4.1708563793e-01	2.0854281897e-01	2.0854281897e-01	7.3152081050e-01	-2.0862006240e-01	9.4014087290e-01	-5.7438046765e-01	3.4623358028e-22	4.5069699638e-22	7.8604609149e-22	8.4372004212e-22	-5.7673950635e-23
0.0753995         	3.8951325642e-01	1.9475662821e-01	1.9475662821e-01	6.5988795989e-01	-1.9297272229e-01	8.5286068218e-01	-5.2291670223e-01	9.7216866387e-22	6.0761819417e-22	2.0093724008e-21	1.6123043946e-21	3.9706800625e-22
0.0857829         	3.6567299943e-01	1.8283649972e-01	1.8283649972e-01	5.5043250140e-01	-1.8002595214e-01	7.3045845354e-01	-4.5524220284e-01	-5.0792954191e-23	-1.7585627037e-22	-4.1961006134e-23	-1.9683677344e-22	1.5487576731e-22
0.0961663         	3.4571367757e-01	1.7285683879e-01	1.7285683879e-01	4.6117293343e-01	-1.6948881130e-01	6.3066174473e-01	-4.0007527802e-01	-5.1729808280e-22	-1.5616015652e-21	-1.1454496559e-21	-2.1343263932e-21	9.8887673726e-22
0.10655           	3.3218145909e-01	1.6609072955e-01	1.6609072955e-01	4.4120988214e-01	-1.6347068361e-01	6.0468056575e-01	-3.8407562468e-01	5.4734920965e-22	1.0261752312e-21	1.1937497822e-21	1.6230501223e-21	-4.2930034012e-22
0.116933          	3.1499901700e-01	1.5749950850e-01	1.5749950850e-01	5.9356468526e-01	-1.5107214072e-01	7.4463682598e-01	-4.4785448335e-01	-4.6638520318e-22	6.9586672533e-22	-1.0610042393e-21	1.6536460568e-22	-1.2263688450e-21
0.127316          	3.1653154160e-01	1.5826577080e-01	1.5826577080e-01	6.4957281992e-01	-1.5155056260e-01	8.0112338252e-01	-4.7633697256e-01	-1.3141308450e-23	4.1375643031e-22	-4.3108485537e-23	3.9220218755e-22	-4.3531067308e-22
0.1377            	3.0204420361e-01	1.5102210180e-01	1.5102210180e-01	6.2479390524e-01	-1.4088808146e-01	7.6568198671e-01	-4.5328503408e-01	-6.0965508926e-22	2.4332439816e-23	-1.3061399872e-21	-6.2873755377e-22	-6.7740243340e-22
0.148083          	3.0003682234e-01	1.5001841117e-01	1.5001841117e-01	6.4184850341e-01	-1.3893110772e-01	7.8077961113e-01	-4.5985535942e-01	6.0496835288e-22	-6.7386230409e-24	1.2996748703e-21	6.4309881211e-22	6.5657605819e-22
0.158467          	2.9564484145e-01	1.4782242072e-01	1.4782242072e-01	6.5306991898e-01	-1.3482837519e-01	7.8789829417e-01	-4.6136333468e-01	-7.1686338690e-22	-2.4662085318e-22	-1.5031177988e-21	-9.9817975256e-22	-5.0493804620e-22
0.16885           	2.9056083939e-01	1.4528041969e-01	1.4528041969e-01	6.3796060142e-01	-1.3126027189e-01	7.6922087331e-01	-4.5024057260e-01	-4.9483676589e-22	-1.9069585288e-22	-9.9960327665e-22	-6.9049749121e-22	-3.0910578545e-22
0.179233          	2.8748523903e-01	1.4374261951e-01	1.4374261951e-01	6.5583430317e-01	-1.2743849401e-01	7.8327279718e-01	-4.5535564560e-01	-1.9756044262e-23	-4.5549127691e-22	-1.2016807139e-23	-4.6149968048e-22	4.4948287334e-22
0.189617          	2.8444581855e-01	1.4222290928e-01	1.4222290928e-01	6.6294069545e-01	-1.2390887846e-01	7.8684957392e-01	-4.5537922619e-01	2.4390275642e-22	5.6670244744e-22	5.5087030361e-22	8.4213759924e-22	-2.9126729563e-22
0.2               	2.8215437356e-01	1.4107718678e-01	1.4107718678e-01	6.6706427906e-01	-1.2107330353e-01	7.8813758259e-01	-4.5460544306e-01	-3.7423709760e-22	-3.5039859951e-22	-7.5399726025e-22	-7.2739722964e-22	-2.6600030615e-23
0.21              	2.7966793698e-01	1.3983396849e-01	1.3983396849e-01	6.6765899930e-01	-1.1852875417e-01	7.8618775347e-01	-4.5235825382e-01	-2.2644624887e-22	-8.0738559934e-23	-4.5742451549e-22	-3.0945081768e-22	-1.4797369781e-22
0.22              	2.7970311956e-01	1.3985155978e-01	1.3985155978e-01	6.6618882442e-01	-1.1866089709e-01	7.8484972151e-01	-4.5175530930e-01	-7.2880485722e-22	-2.8762330100e-22	-1.6315423597e-21	-1.1033944808e-21	-5.2814787884e-22
0.23              	2.7302651264e-01	1.3651325632e-01	1.3651325632e-01	6.6327281402e-01	-1.1343152933e-01	7.7670434335e-01	-4.4506793634e-01	-1.0844909897e-22	4.2214095865e-22	-2.7645103875e-22	2.8391543927e-22	-5.6036647802e-22
0.24              	2.8507208651e-01	1.4253604325e-01	1.4253604325e-01	7.1496773780e-01	-1.1892568264e-01	8.3389342043e-01	-4.7640955153e-01	-1.1844510663e-21	-7.7845647165e-22	-2.0744736256e-21	-1.8156932845e-21	-2.5878034116e-22
0.25              	2.7726574067e-01	1.3863287033e-01	1.3863287033e-01	6.9763445419e-01	-1.1209704233e-01	8.0973149652e-01	-4.6091426943e-01	-3.5806911521e-22	-1.7224263108e-22	-6.6902927439e-22	-5.0675726828e-22	-1.6227200611e-22
0.26              	2.7554623356e-01	1.3777311678e-01	1.3777311678e-01	7.0022954142e-01	-1.0905751553e-01	8.0928705695e-01	-4.5917228624e-01	-4.1659319325e-22	-1.6007474642e-21	-6.4736843746e-22	-1.9244316829e-21	1.2770632455e-21
0.27              	2.7506381560e-01	1.3753190780e-01	1.3753190780e-01	7.0338200826e-01	-1.0683269738e-01	8.1021470564e-01	-4.5852370151e-01	9.1753760305e-22	3.3727586276e-22	1.9467425907e-21	1.3106471581e-21	6.3609543259e-22
0.28              	2.7640968212e-01	1.3820484106e-01	1.3820484106e-01	7.1540309020e-01	-1.0490924437e-01	8.2031233458e-01	-4.6261078948e-01	-1.1413142924e-21	-1.4827179624e-21	-2.2521591719e-21	-2.6087975484e-21	3.5663837650e-22
0.29              	2.7304551066e-01	1.3652275533e-01	1.3652275533e-01	6.9782262368e-01	-1.0210932901e-01	7.9993195269e-01	-4.5102064085e-01	1.2503173241e-22	7.0739108396e-22	2.4630229191e-22	8.3054222991e-22	-5.8423993800e-22
0.3               	2.7337299445e-01	1.3668649722e-01	1.3668649722e-01	7.0778869843e-01	-1.0036123622e-01	8.0814993466e-01	-4.5425558544e-01	-6.0409006690e-22	2.8144944716e-22	-1.4824586230e-21	-4.5977986433e-22	-1.0226787586e-21
0.31              	2.7411383124e-01	1.3705691562e-01	1.3705691562e-01	7.1602202246e-01	-9.9256543077e-02	8.1527856553e-01	-4.5726755431e-01	7.8486966859e-22	7.8250181626e-22	1.6317905811e-21	1.5983971068e-21	3.3393474275e-23
0.32              	2.7600130173e-01	1.3800065087e-01	1.3800065087e-01	7.0944176553e-01	-9.9785435114e-02	8.0922720064e-01	-4.5450631788e-01	5.1348855423e-22	-3.3440388495e-22	1.1770443793e-21	2.5411830472e-22	9.2292607461e-22
0.33              	2.7361255858e-01	1.3680627929e-01	1.3680627929e-01	7.1600851365e-01	-9.6674020192e-02	8.1268253384e-01	-4.5467827702e-01	-6.1431158201e-22	-1.1734210247e-21	-1.3077957214e-21	-1.8273188855e-21	5.1952316401e-22
0.34              	2.7686737523e-01	1.3843368761e-01	1.3843368761e-01	7.6535430276e-01	-9.3318443490e-02	8.5867274625e-01	-4.7599559487e-01	5.4335420623e-22	1.0846457264e-21	9.0813904007e-22	1.5387152464e-21	-6.3057620633e-22
0.35              	2.7550018560e-01	1.3775009280e-01	1.3775009280e-01	7.4633377645e-01	-9.2377110771e-02	8.3871088722e-01	-4.6554399900e-01	-1.3232854994e-22	-2.0339041370e-22	-1.7550546693e-22	-2.9114314717e-22	1.1563768023e-22
0.36              	2.7620788205e-01	1.3810394103e-01	1.3810394103e-01	7.4756580128e-01	-9.1089007119e-02	8.3865480840e-01	-4.6487190776e-01	-1.3268412524e-21	-1.3500063428e-21	-2.7046441563e-21	-2.7023284209e-21	-2.3157353755e-24
0.37              	2.7739783548e-01	1.3869891774e-01	1.3869891774e-01	7.3034356544e-01	-9.1840686573e-02	8.2218425201e-01	-4.5701246929e-01	-7.1043013244e-22	-4.3586598169e-22	-1.5153475179e-21	-1.1935397406e-21	-3.2180777725e-22
0.38              	2.8217039186e-01	1.4108519593e-01	1.4108519593e-01	7.7106900605e-01	-9.2458902745e-02	8.6352790879e-01	-4.7799340577e-01	-5.3014466960e-22	-3.7574302367e-22	-1.1548832942e-21	-9.5318467075e-22	-2.0169862341e-22
0.39              	2.8080303014e-01	1.4040151507e-01	1.4040151507e-01	7.3179636129e-01	-9.0571555496e-02	8.2236791679e-01	-4.5646973614e-01	-7.9338305886e-24	2.3085507988e-22	5.8753046355e-23	2.6023160306e-22	-2.0147855670e-22
0.4               	2.7748065879e-01	1.3874032939e-01	1.3874032939e-01	7.0748564096e-01	-8.8993234924e-02	7.9647887588e-01	-4.4273605540e-01	-6.0677944909e-22	-1.0488895498e-21	-1.1099214526e-21	-1.6038502761e-21	4.9392882352e-22
0.41              	2.8272308430e-01	1.4136154215e-01	1.4136154215e-01	7.3341226873e-01	-8.8783339845e-02	8.2219560857e-01	-4.5548947421e-01	-3.2742003165e-22	-5.4369653080e-22	-6.9297216068e-22	-8.9018261115e-22	1.9721045046e-22
0.42              	2.8878320596e-01	1.4439160298e-01	1.4439160298e-01	7.5199613035e-01	-8.9617923614e-02	8.4161405397e-01	-4.6561598879e-01	6.8075337912e-22	5.7164941255e-22	1.6341437314e-21	1.3887212783e-21	2.4542245317e-22
0.43              	2.8690918073e-01	1.4345459037e-01	1.4345459037e-01	7.5838386259e-01	-8.6368270890e-02	8.4475213348e-01	-4.6556020218e-01	-3.8988520052e-23	-5.2702002170e-23	-8.4065174785e-23	-9.4734589563e-23	1.0669414778e-23
0.44              	2.8822550218e-01	1.4411275109e-01	1.4411275109e-01	7.5624267827e-01	-8.5819979816e-02	8.4206265808e-01	-4.6394131895e-01	-9.6970671338e-22	-1.6378763691e-21	-1.8911872353e-21	-2.5834699868e-21	6.9228275145e-22
0.45              	2.9110767105e-01	1.4555383552e-01	1.4555383552e-01	7.6130505398e-01	-8.5294095138e-02	8.4659914912e-01	-4.6594662213e-01	4.0508194668e-22	-2.2323827351e-22	9.8237619637e-22	2.6794982468e-22	7.1442637169e-22
0.46              	2.9015221288e-01	1.4507610644e-01	1.4507610644e-01	7.5711856402e-01	-8.3357980948e-02	8.4047654497e-01	-4.6191726296e-01	2.5083921204e-22	3.8312798091e-22	4.1833858450e-22	5.9229727316e-22	-1.7395868866e-22
0.47              	2.9297897291e-01	1.4648948645e-01	1.4648948645e-01	7.7175983298e-01	-8.2274112795e-02	8.5403394578e-01	-4.6815402929e-01	4.4446238439e-22	1.1071294368e-21	5.7136227471e-22	1.3928105742e-21	-8.2144829949e-22
0.48              	2.9407360373e-01	1.4703680187e-01	1.4703680187e-01	7.6360849293e-01	-8.0820915375e-02	8.4442940831e-01	-4.6262516184e-01	1.0637954810e-21	7.0641098259e-22	2.4608613582e-21	1.9368416617e-21	5.2401969652e-22
0.49              	2.9976016436e-01	1.4988008218e-01	1.4988008218e-01	7.8388581402e-01	-8.1346361845e-02	8.6523217587e-01	-4.7328926886e-01	-2.4938664847e-22	7.8021110458e-24	-7.0059377242e-22	-3.4249477516e-22	-3.5809899725e-22
0.5               	2.9958703948e-01	1.4979351974e-01	1.4979351974e-01	7.8845888538e-01	-7.9004575847e-02	8.6746346123e-01	-4.7323401854e-01	-1.2579141237e-21	-1.9959190524e-21	-2.5114257527e-21	-3.2516319287e-21	7.4020617602e-22
0.51              	3.0045973818e-01	1.5022986909e-01	1.5022986909e-01	7.8589473605e-01	-7.8322449502e-02	8.6421718556e-01	-4.7126981753e-01	8.5251132898e-22	7.5038774370e-22	2.0210930967e-21	1.7609342921e-21	2.6015880467e-22
0.52              	3.0228564184e-01	1.5114282092e-01	1.5114282092e-01	7.9110971175e-01	-7.7775192504e-02	8.6888490425e-01	-4.7333004838e-01	-9.9605437772e-22	-2.0142504529e-21	-1.7339711204e-21	-2.8812360131e-21	1.1472648927e-21
0.53              	3.0370019637e-01	1.5185009818e-01	1.5185009818e-01	7.9060822366e-01	-7.6535920740e-02	8.6714414440e-01	-4.7184003257e-01	-6.6116641359e-22	-2.4206785497e-22	-1.4462038070e-21	-9.6516975849e-22	-4.8103404855e-22
0.54              	3.0658041077e-01	1.5329020539e-01	1.5329020539e-01	7.9031756933e-01	-7.6590883958e-02	8.6690845329e-01	-4.7174966863e-01	-4.5757873024e-22	-6.1936689730e-22	-7.5491963710e-22	-9.9682671585e-22	2.4190707875e-22
0.55              	3.0844002980e-01	1.5422001490e-01	1.5422001490e-01	7.9898498510e-01	-7.5413087142e-02	8.7439807224e-01	-4.7490557969e-01	9.9440445204e-22	7.0215240023e-22	2.3433563810e-21	1.8738305907e-21	4.6952579025e-22
0.56              	3.1178030751e-01	1.5589015375e-01	1.5589015375e-01	7.8448555237e-01	-7.6898791022e-02	8.6138434339e-01	-4.6914156720e-01	-4.8944772384e-22	-3.3151146231e-22	-1.2224384314e-21	-9.4273067801e-22	-2.7970775339e-22
0.57              	3.0652838814e-01	1.5326419407e-01	1.5326419407e-01	7.8500287493e-01	-7.0212145237e-02	8.5521502016e-01	-4.6271358270e-01	2.6474457371e-22	5.6637131533e-22	5.7208000359e-22	8.5241131712e-22	-2.8033131353e-22
0.58              	3.1338582073e-01	1.5669291037e-01	1.5669291037e-01	7.7907813605e-01	-7.3779877413e-02	8.5285801346e-01	-4.6331894544e-01	7.9793274849e-22	1.6322030622e-22	2.0336682405e-21	1.1800544264e-21	8.5361381401e-22
0.59              	3.1447780810e-01	1.5723890405e-01	1.5723890405e-01	8.1369678345e-01	-7.1862469318e-02	8.8555925276e-01	-4.7871086104e-01	-3.8049872506e-22	-1.5081426755e-22	-9.0723400906e-22	-6.0443127208e-22	-3.0280273699e-22
0.6               	3.1683971286e-01	1.5841985643e-01	1.5841985643e-01	8.1342462095e-01	-7.0644546589e-02	8.8406916754e-01	-4.7735685706e-01	-7.8007673859e-22	-1.0365033570e-21	-1.4602048486e-21	-1.7666057812e-21	3.0640093268e-22
0.609524          	3.1646108439e-01	1.5823054220e-01	1.5823054220e-01	8.0099142093e-01	-6.9656569013e-02	8.7064798994e-01	-4.7015227948e-01	3.1819508039e-23	3.1526634643e-22	2.1298210693e-23	3.2591545178e-22	-3.0461724108e-22
0.619048          	3.1995527734e-01	1.5997763867e-01	1.5997763867e-01	8.1317693303e-01	-6.9799449232e-02	8.8297638226e-01	-4.7638791575e-01	2.0817248160e-21	2.0142695563e-21	4.6753899121e-21	4.3519645124e-21	3.2342539970e-22
0.628571          	3.2023462915e-01	1.6011731457e-01	1.6011731457e-01	8.0226947722e-01	-6.8194441276e-02	8.7046391849e-01	-4.6932917988e-01	-1.6523857401e-21	-2.1981751355e-21	-3.2166739468e-21	-3.8065121089e-21	5.8983816215e-22
0.638095          	3.2473081527e-01	1.6236540763e-01	1.6236540763e-01	8.0354248057e-01	-6.9277716317e-02	8.7282019689e-01	-4.7104895660e-01	7.1729594518e-22	5.0429170914e-22	2.0324500454e-21	1.5205167318e-21	5.1193331356e-22
0.647619          	3.2671156286e-01	1.6335578143e-01	1.6335578143e-01	8.1580262312e-01	-6.7587281417e-02	8.8338990453e-01	-4.7548859298e-01	1.4099265696e-21	1.6389486787e-21	3.0936884447e-21	3.1857929011e-21	-9.2104456339e-23
0.657143          	3.2567635526e-01	1.6283817763e-01	1.6283817763e-01	8.1732383139e-01	-6.5452778700e-02	8.8277661009e-01	-4.7411469440e-01	-6.8542857179e-22	-2.0021499473e-22	-1.5790915400e-21	-9.8976076472e-22	-5.8933077526e-22
0.666667          	3.2700225044e-01	1.6350112522e-01	1.6350112522e-01	8.1193136221e-01	-6.4438678195e-02	8.7637004041e-01	-4.7040435930e-01	1.8946312337e-23	-4.7822699705e-22	2.5220303926e-22	-3.5212547743e-22	6.0432851668e-22
0.67619           	3.3243502336e-01	1.6621751168e-01	1.6621751168e-01	8.4692378802e-01	-6.5223746222e-02	9.1214753425e-01	-4.8868564023e-01	-3.5387935844e-22	-4.4280951322e-22	-7.0873068790e-22	-7.9717485717e-22	8.8444169275e-23
0.685714          	3.3744061116e-01	1.6872030558e-01	1.6872030558e-01	8.3467202223e-01	-6.4626620771e-02	8.9929864300e-01	-4.8196263189e-01	-4.2340384896e-22	-6.4424485917e-22	-1.0936640657e-21	-1.1910768920e-21	9.7412826317e-23
0.695238          	3.3858350868e-01	1.6929175434e-01	1.6929175434e-01	8.3737374544e-01	-6.3084009198e-02	9.0045775464e-01	-4.8177088192e-01	-1.0929883437e-21	-5.5471717675e-22	-2.9675932710e-21	-2.0385138122e-21	-9.2907945875e-22
0.704762          	3.4110785409e-01	1.7055392704e-01	1.7055392704e-01	8.3945506176e-01	-6.3147596285e-02	9.0260265805e-01	-4.8287512717e-01	-8.7652302310e-22	-1.6628468633e-21	-1.3862481190e-21	-2.3559709228e-21	9.6972280379e-22
0.714286          	3.4187848287e-01	1.7093924144e-01	1.7093924144e-01	8.3717479857e-01	-6.2418873037e-02	8.9959367161e-01	-4.8100627232e-01	4.2293298878e-22	1.0560770757e-21	4.8492780184e-22	1.2985409766e-21	-8.1361317477e-22
0.72381           	3.4554291622e-01	1.7277145811e-01	1.7277145811e-01	8.4852502842e-01	-6.2128657495e-02	9.1065368592e-01	-4.8639117171e-01	-1.7593269609e-22	-3.3571361070e-22	-3.0090128970e-22	-4.8616425555e-22	1.8526296585e-22
0.733333          	3.4734777605e-01	1.7367388802e-01	1.7367388802e-01	8.4808215675e-01	-6.1322675255e-02	9.0940483200e-01	-4.8536375363e-01	-8.5334243186e-22	-6.1606781025e-22	-1.9942670189e-21	-1.6132013197e-21	-3.8106569918e-22
0.742857          	3.4393023439e-01	1.7196511719e-01	1.7196511719e-01	8.3067303193e-01	-5.8732245719e-02	8.8940527765e-01	-4.7406876168e-01	-4.4524982293e-22	-3.1549752375e-22	-1.2806826326e-21	-9.5583884006e-22	-3.2484379257e-22
0.752381          	3.4710379712e-01	1.7355189856e-01	1.7355189856e-01	8.2718234195e-01	-5.9457055830e-02	8.8663939778e-01	-4.7304822681e-01	-5.2160899867e-22	-9.6245970518e-22	-9.9443712920e-22	-1.4596782698e-21	4.6524114058e-22
0.761905          	3.5263790578e-01	1.7631895289e-01	1.7631895289e-01	8.3766993798e-01	-5.9267280098e-02	8.9693721808e-01	-4.7810224909e-01	-1.6267236678e-21	-1.4053474531e-21	-3.6736408611e-21	-3.2421678837e-21	-4.3147297746e-22
0.771429          	3.5072800689e-01	1.7536400345e-01	1.7536400345e-01	8.2928571738e-01	-5.6965950465e-02	8.8625166784e-01	-4.7160880915e-01	1.8777202076e-22	2.3619116597e-22	4.2094093710e-22	4.4666163451e-22	-2.5720697418e-23
0.780952          	3.5489058437e-01	1.7744529218e-01	1.7744529218e-01	8.4630505274e-01	-5.6496341931e-02	9.0280139467e-01	-4.7964886830e-01	1.2807081779e-22	-2.3346267711e-22	8.4834476643e-22	1.9070970610e-22	6.5763506033e-22
0.790476          	3.5846166705e-01	1.7923083352e-01	1.7923083352e-01	8.5118888577e-01	-5.6856523138e-02	9.0804540890e-01	-4.8245096602e-01	7.6673540019e-22	1.0536884159e-21	1.8306582639e-21	1.9690175479e-21	-1.3835928394e-22
0.8               	3.6190037081e-01	1.8095018541e-01	1.8095018541e-01	8.6111821219e-01	-5.5935061909e-02	9.1705327410e-01	-4.8649416801e-01	4.5570192190e-22	4.7411123819e-22	9.2966286582e-22	9.3894267110e-22	-9.2798052753e-24
0.809091          	3.6706063297e-01	1.8353031649e-01	1.8353031649e-01	8.4798058120e-01	-5.7035008223e-02	9.0501558943e-01	-4.8102529883e-01	2.5878053636e-22	-5.3415736300e-22	8.5640045931e-22	-1.0595713334e-22	9.6235759265e-22
0.818182          	3.6167298787e-01	1.8083649394e-01	1.8083649394e-01	8.3702243652e-01	-5.4701857696e-02	8.9172429422e-01	-4.7321307596e-01	-9.5539035027e-22	-7.3589773811e-23	-2.8615977297e-21	-1.5043886387e-21	-1.3572090910e-21
0.827273          	3.6767254649e-01	1.8383627325e-01	1.8383627325e-01	8.5637467493e-01	-5.4835225833e-02	9.1120990077e-01	-4.8302256330e-01	-3.3678033802e-24	5.7761781320e-23	1.1327899287e-22	1.1440127775e-22	-1.1222848855e-24
0.836364          	3.7641172983e-01	1.8820586492e-01	1.8820586492e-01	8.8287821002e-01	-5.5247865895e-02	9.3812607591e-01	-4.9668697090e-01	-9.0106779484e-22	-1.0962181664e-21	-2.2251082436e-21	-2.2087722882e-21	-1.6335955341e-23
0.845455          	3.7515918731e-01	1.8757959365e-01	1.8757959365e-01	8.7384369435e-01	-5.3841806766e-02	9.2768550111e-01	-4.9076365394e-01	-4.7299453278e-21	-5.2235041130e-21	-1.0993053038e-20	-1.0720030632e-20	-2.7302240627e-22
0.854545          	3.7314571842e-01	1.8657285921e-01	1.8657285921e-01	8.4700046240e-01	-5.3150496100e-02	9.0015095850e-01	-4.7665072730e-01	-1.5768721159e-21	-1.4305473547e-21	-4.0032374558e-21	-3.4321660826e-21	-5.7107137317e-22
0.863636          	3.7511836193e-01	1.8755918097e-01	1.8755918097e-01	8.7043508616e-01	-5.0433642754e-02	9.2086872892e-01	-4.8565118584e-01	-2.8528254151e-21	-3.8990357692e-21	-6.2739524940e-21	-7.0360120163e-21	7.6205952223e-22
0.872727          	3.7347815914e-01	1.8673907957e-01	1.8673907957e-01	8.7422538558e-01	-4.6847509889e-02	9.2107289547e-01	-4.8396020268e-01	-2.7165103676e-22	-4.3563756851e-22	-5.7099717655e-22	-7.2113615678e-22	1.5013898023e-22
0.881818          	3.7990532870e-01	1.8995266435e-01	1.8995266435e-01	8.8247385620e-01	-4.8830198766e-02	9.3130405497e-01	-4.9006712687e-01	-3.5460590934e-22	-4.2864764362e-22	-3.5247961750e-22	-6.0488745237e-22	2.5240783487e-22
0.890909          	3.8406903054e-01	1.9203451527e-01	1.9203451527e-01	8.8885031254e-01	-4.8627980998e-02	9.3747829354e-01	-4.9305313727e-01	1.3023269405e-21	6.6259636723e-22	3.7976335414e-21	2.5614131379e-21	1.2362204035e-21
