# Field minima and maxima
# Time            	field             	min               	location(min)     	processor         	max               	location(max)     	processor         
1.19998e-05       	nut               	0.0000000000e+00	(1.0436568743e-01 -4.5246649191e-01 0.0000000000e+00)	0	6.6666964244e-04	(4.3941460788e-02 -5.6812388622e-01 -2.9916472242e-17)	0
1.19998e-05       	U                 	(6.8420435431e-01 -3.8240841094e-01 -1.4694418143e-22)	(-4.7635775056e-03 -5.1763141672e-01 -1.3853200712e-17)	0	(1.1654000867e+00 2.9566401202e-01 6.2903442344e-23)	(9.7567270627e-02 -4.4830762902e-01 -1.2596504135e-17)	0
1.19998e-05       	k                 	9.8830816030e-03	(9.8503234585e-01 -4.9682746452e-01 0.0000000000e+00)	0	1.1058446336e-02	(9.8503232076e-01 -5.0319046452e-01 0.0000000000e+00)	0
1.19998e-05       	p                 	-6.8120943158e+03	(8.3512942391e-01 -4.7703020676e-01 0.0000000000e+00)	0	5.2434343684e+03	(1.5156621845e-02 -4.7755230681e-01 0.0000000000e+00)	0
1.19998e-05       	omega             	1.4999798806e+01	(1.1950000000e+01 5.9500000000e+00 3.0454034356e-17)	3	7.8142985483e+04	(9.8503234585e-01 -4.9682746452e-01 0.0000000000e+00)	0
2.63998e-05       	nut               	0.0000000000e+00	(1.0436591236e-01 -4.5246528221e-01 0.0000000000e+00)	0	6.6667320038e-04	(4.3941138435e-02 -5.6812239060e-01 0.0000000000e+00)	0
2.63998e-05       	U                 	(6.3104794421e-01 -4.0153670822e-01 -7.2676063798e-24)	(-4.7636609327e-03 -5.1762969063e-01 0.0000000000e+00)	0	(1.0896814712e+00 3.5364099897e-01 3.0155334652e-23)	(2.7475317564e-02 -4.7107678185e-01 0.0000000000e+00)	0
2.63998e-05       	k                 	9.7784284631e-03	(9.8503236085e-01 -4.9683042205e-01 0.0000000000e+00)	0	1.2278826263e-02	(9.8503230565e-01 -5.0319342205e-01 0.0000000000e+00)	0
2.63998e-05       	p                 	-4.7105094593e+01	(9.6537900975e-01 -4.9214887298e-01 1.0191026764e-17)	0	1.4196452330e+02	(4.4311937852e-03 -4.8542510026e-01 -1.0450328819e-17)	0
2.63998e-05       	omega             	1.4999557374e+01	(1.1950000000e+01 5.9500000000e+00 3.0454034356e-17)	3	7.8142970993e+04	(9.8503236085e-01 -4.9683042205e-01 0.0000000000e+00)	0
4.36791e-05       	nut               	0.0000000000e+00	(1.0436618226e-01 -4.5246383069e-01 0.0000000000e+00)	0	6.6667734833e-04	(9.6245868098e-01 -4.3791148629e-01 -2.9293957129e-17)	0
4.36791e-05       	U                 	(6.6140934180e-01 -4.6318860484e-01 -2.6543448679e-23)	(-1.5729847948e-03 -5.0838720266e-01 0.0000000000e+00)	0	(1.1841342808e+00 5.7330239574e-01 3.2423681793e-24)	(1.0057262490e+00 -5.0608237751e-01 0.0000000000e+00)	0
4.36791e-05       	k                 	9.6408532696e-03	(9.9057249669e-01 -4.9668213878e-01 0.0000000000e+00)	0	1.3685664406e-02	(9.8503228751e-01 -5.0319697099e-01 0.0000000000e+00)	0
4.36791e-05       	p                 	-3.9213263016e+01	(-8.4881228370e-03 -4.9700465003e-01 0.0000000000e+00)	0	2.4561288083e+01	(4.4312765460e-03 -4.8542308131e-01 1.0450328819e-17)	0
4.36791e-05       	omega             	1.4999267680e+01	(1.1950000000e+01 5.9500000000e+00 3.0454034356e-17)	3	7.8142958023e+04	(9.8503237884e-01 -4.9683397099e-01 0.0000000000e+00)	0
6.4415e-05        	nut               	0.0000000000e+00	(1.0436650617e-01 -4.5246208888e-01 0.0000000000e+00)	0	6.6668229298e-04	(-4.3576656091e-02 -5.4363082692e-01 -5.3252645344e-17)	0
6.4415e-05        	U                 	(6.3131564479e-01 -4.7728948931e-01 -2.8593316636e-24)	(-1.5730419396e-03 -5.0838473899e-01 -3.3364461478e-17)	0	(1.2170370321e+00 3.0294557993e-01 1.0427038993e-24)	(6.5017635103e-02 -4.5896875598e-01 0.0000000000e+00)	0
6.4415e-05        	k                 	9.4888035934e-03	(9.9057251928e-01 -4.9668643548e-01 0.0000000000e+00)	0	1.5298282285e-02	(9.8503226571e-01 -5.0320122995e-01 0.0000000000e+00)	0
6.4415e-05        	p                 	0.0000000000e+00	(-5.0000000000e-02 -5.5000000000e-01 1.4456028966e-17)	0	6.7500801376e+01	(3.5000000000e-01 -2.5000000000e-01 0.0000000000e+00)	2
6.4415e-05        	omega             	1.4998920052e+01	(1.1950000000e+01 5.9500000000e+00 3.0454034356e-17)	3	7.8142946439e+04	(9.8503240039e-01 -4.9683822995e-01 0.0000000000e+00)	0
8.92981e-05       	nut               	0.0000000000e+00	(1.0436689488e-01 -4.5245999882e-01 0.0000000000e+00)	0	6.6668806522e-04	(9.8114311766e-01 -5.4308298195e-01 -5.4062297323e-17)	0
8.92981e-05       	U                 	(4.3640153875e-01 -2.7424828026e-01 -5.6655710157e-25)	(-2.4577593281e-03 -5.0292064467e-01 -8.3557303273e-18)	0	(1.1772779067e+00 2.6851931913e-01 8.9669259555e-26)	(9.7064598142e-02 -4.4160797465e-01 2.9080565627e-17)	0
8.92981e-05       	k                 	9.3252544250e-03	(9.9057254635e-01 -4.9669159165e-01 0.0000000000e+00)	0	1.7124212526e-02	(9.8503223950e-01 -5.0320634082e-01 0.0000000000e+00)	0
8.92981e-05       	p                 	-9.4029319757e-02	(-8.4880779034e-03 -4.9699912640e-01 -1.7521269554e-17)	0	2.1928409133e+01	(3.5000000000e-01 -2.5000000000e-01 0.0000000000e+00)	2
8.92981e-05       	omega             	1.4998502921e+01	(1.1950000000e+01 5.9500000000e+00 3.0454034356e-17)	3	7.8142935039e+04	(9.8503242622e-01 -4.9684334082e-01 0.0000000000e+00)	0
0.000119158       	nut               	0.0000000000e+00	(1.0436736134e-01 -4.5245749091e-01 0.0000000000e+00)	0	6.6669485724e-04	(9.8114269489e-01 -5.4308907699e-01 2.3499914211e-17)	0
0.000119158       	U                 	(6.2378538118e-01 -3.8336110906e-01 -1.7720983244e-24)	(-4.7641981497e-03 -5.1761857295e-01 -2.6960046971e-17)	0	(1.0981698321e+00 4.0790673440e-01 9.8431111997e-27)	(4.7284656145e-02 -4.5444955788e-01 0.0000000000e+00)	0
0.000119158       	k                 	9.1499817823e-03	(9.9057257877e-01 -4.9669777922e-01 -2.2506811902e-17)	0	1.9151610290e-02	(9.8503220800e-01 -5.0321247402e-01 0.0000000000e+00)	0
0.000119158       	p                 	0.0000000000e+00	(-5.0000000000e-02 -5.5000000000e-01 1.4456028966e-17)	0	3.3646664652e+01	(5.5000000000e-01 -2.5000000000e-01 0.0000000000e+00)	2
0.000119158       	omega             	1.4998002397e+01	(1.1950000000e+01 5.9500000000e+00 3.0454034356e-17)	3	7.8142922783e+04	(9.8503245715e-01 -4.9684947403e-01 0.0000000000e+00)	0
0.000154992       	nut               	0.0000000000e+00	(1.0436792116e-01 -4.5245448147e-01 0.0000000000e+00)	0	6.6670284632e-04	(1.0124711320e+00 -4.3773320806e-01 7.1907598582e-18)	0
0.000154992       	U                 	(5.7231130435e-01 -4.9757598606e-01 -1.4179566273e-24)	(-1.5732913739e-03 -5.0837397839e-01 -2.5794334320e-17)	0	(1.1311558319e+00 3.2404322024e-01 1.3525564320e-25)	(6.9003197632e-02 -4.4473927156e-01 0.0000000000e+00)	0
0.000154992       	k                 	8.9624975074e-03	(9.9057261759e-01 -4.9670520498e-01 2.9496961590e-17)	0	2.1344150714e-02	(9.8503217012e-01 -5.0321983455e-01 0.0000000000e+00)	0
0.000154992       	p                 	0.0000000000e+00	(-5.0000000000e-02 -5.5000000000e-01 1.4456028966e-17)	0	3.1756772421e+01	(4.5000000000e-01 -2.5000000000e-01 0.0000000000e+00)	2
0.000154992       	omega             	1.4997401781e+01	(1.1950000000e+01 5.9500000000e+00 3.0454034356e-17)	3	7.8142908975e+04	(9.8503249419e-01 -4.9685683456e-01 0.0000000000e+00)	0
0.000197997       	nut               	0.0000000000e+00	(1.0436859307e-01 -4.5245087010e-01 0.0000000000e+00)	0	6.6671513164e-04	(-4.3578570960e-02 -5.4361311400e-01 0.0000000000e+00)	0
0.000197997       	U                 	(6.3057775472e-01 -3.8191900231e-01 -8.2675150058e-26)	(-4.7646545102e-03 -5.1760912486e-01 0.0000000000e+00)	0	(1.1330861408e+00 3.2297585042e-01 1.1511201218e-25)	(6.9003978566e-02 -4.4473516041e-01 7.0117817283e-19)	0
0.000197997       	k                 	8.7617683597e-03	(9.9057266407e-01 -4.9671411721e-01 -2.2506811902e-17)	0	2.3638539847e-02	(9.8503212453e-01 -5.0322866848e-01 0.0000000000e+00)	0
0.000197997       	p                 	-2.3418098183e+01	(9.5000000000e-01 -2.5000000000e-01 0.0000000000e+00)	2	0.0000000000e+00	(-5.0000000000e-02 -5.5000000000e-01 1.4456028966e-17)	0
0.000197997       	omega             	1.4996681033e+01	(1.1950000000e+01 5.9500000000e+00 3.0454034356e-17)	3	7.8142892811e+04	(9.8503253852e-01 -4.9686566849e-01 0.0000000000e+00)	0
0.000249599       	nut               	0.0000000000e+00	(1.0436939934e-01 -4.5244653730e-01 0.0000000000e+00)	0	6.6672756087e-04	(-4.3579310472e-02 -5.4360627250e-01 0.0000000000e+00)	0
0.000249599       	U                 	(6.3363607141e-01 -3.8202644151e-01 -1.0523007665e-24)	(-4.7649530868e-03 -5.1760294152e-01 4.1559602137e-17)	0	(1.2165149641e+00 5.2201204754e-02 8.9489267876e-25)	(2.5356918944e-01 -4.3680570643e-01 -2.3241674860e-17)	0
0.000249599       	k                 	8.5479497342e-03	(9.9057271966e-01 -4.9672481146e-01 2.9496961590e-17)	0	2.5938418289e-02	(9.8503206965e-01 -5.0323926877e-01 0.0000000000e+00)	0
0.000249599       	p                 	-5.5822056257e+00	(9.5000000000e-01 -2.5000000000e-01 0.0000000000e+00)	2	4.3816509683e+00	(4.5000000000e-01 -2.5000000000e-01 0.0000000000e+00)	2
0.000249599       	omega             	1.4995816311e+01	(1.1950000000e+01 5.9500000000e+00 3.0454034356e-17)	3	7.8142873266e+04	(9.8503259154e-01 -4.9687626880e-01 0.0000000000e+00)	0
0.000311517       	nut               	0.0000000000e+00	(1.0437036691e-01 -4.5244133891e-01 0.0000000000e+00)	0	6.6674220179e-04	(-4.3580197700e-02 -5.4359806379e-01 -3.0209837914e-17)	0
0.000311517       	U                 	(3.6422434024e-01 -2.4838350500e-01 -1.4119351811e-24)	(-2.4579717789e-03 -5.0289418402e-01 0.0000000000e+00)	0	(1.1160987033e+00 4.0722769987e-01 8.6879347981e-26)	(4.7287535902e-02 -4.5442979764e-01 0.0000000000e+00)	0
0.000311517       	k                 	8.3214024150e-03	(9.9057278611e-01 -4.9673764461e-01 6.9901496881e-18)	0	2.8114544156e-02	(9.8503200356e-01 -5.0325198919e-01 0.0000000000e+00)	0
0.000311517       	p                 	-4.4253360866e+00	(9.5000000000e-01 -2.5000000000e-01 0.0000000000e+00)	2	1.8049125264e+00	(4.5000000000e-01 -2.5000000000e-01 0.0000000000e+00)	2
0.000311517       	omega             	1.4994778842e+01	(1.1950000000e+01 5.9500000000e+00 3.0454034356e-17)	3	7.8142849578e+04	(9.8503265491e-01 -4.9688898922e-01 0.0000000000e+00)	0
0.000385806       	nut               	0.0000000000e+00	(1.0437152789e-01 -4.5243510299e-01 0.0000000000e+00)	0	6.6675946678e-04	(-4.3581261975e-02 -5.4358821609e-01 0.0000000000e+00)	0
0.000385806       	U                 	(6.3929588315e-01 -3.8396442716e-01 -1.3843902967e-25)	(-4.7657407491e-03 -5.1758662242e-01 1.3853200712e-17)	0	(1.1180295604e+00 4.0659070278e-01 6.9192829522e-26)	(4.7288648366e-02 -4.5442216823e-01 0.0000000000e+00)	0
0.000385806       	k                 	8.0830114322e-03	(9.9057286548e-01 -4.9675304256e-01 0.0000000000e+00)	0	3.0015046321e-02	(9.8503192390e-01 -5.0326725187e-01 0.0000000000e+00)	0
0.000385806       	p                 	0.0000000000e+00	(-5.0000000000e-02 -5.5000000000e-01 1.4456028966e-17)	0	1.4662772522e+01	(5.0000000000e-02 -2.5000000000e-01 0.0000000000e+00)	2
0.000385806       	omega             	1.4993534317e+01	(1.1950000000e+01 5.9500000000e+00 3.0454034356e-17)	3	7.8142820857e+04	(9.8503273059e-01 -4.9690425193e-01 0.0000000000e+00)	0
0.00047496        	nut               	0.0000000000e+00	(1.0437292137e-01 -4.5242762077e-01 0.0000000000e+00)	0	6.6677987331e-04	(-4.3582538909e-02 -5.4357639933e-01 0.0000000000e+00)	0
0.00047496        	U                 	(5.1666666703e-01 -5.0184040974e-01 -2.0705880598e-24)	(-1.5741701734e-03 -5.0833597832e-01 0.0000000000e+00)	0	(1.1510861816e+00 1.5785143398e-01 1.0819657350e-24)	(1.5367124909e-01 -4.4244650241e-01 3.2094311276e-17)	0
0.00047496        	k                 	7.8332918797e-03	(9.9057296021e-01 -4.9677152295e-01 2.2506811902e-17)	0	3.1481157883e-02	(9.8503182779e-01 -5.0328556994e-01 0.0000000000e+00)	0
0.00047496        	p                 	0.0000000000e+00	(-5.0000000000e-02 -5.5000000000e-01 1.4456028966e-17)	0	6.3477205120e+00	(5.0000000000e-02 -2.5000000000e-01 0.0000000000e+00)	2
0.00047496        	omega             	1.4992041075e+01	(1.1950000000e+01 5.9500000000e+00 3.0454034356e-17)	3	7.8142786171e+04	(9.8503282089e-01 -4.9692257001e-01 0.0000000000e+00)	0
0.000581944       	nut               	0.0000000000e+00	(1.0437459380e-01 -4.5241864417e-01 0.0000000000e+00)	0	6.6680446048e-04	(-6.2334896807e-02 -5.1238784456e-01 0.0000000000e+00)	0
0.000581944       	U                 	(6.9927528258e-01 -7.0190195472e-01 -1.0685826929e-24)	(4.6977416245e-03 -5.2032179928e-01 1.2657594542e-17)	0	(1.0877916155e+00 4.0748450824e-01 1.5695470479e-25)	(5.9569158059e-02 -4.5384328678e-01 0.0000000000e+00)	0
0.000581944       	k                 	7.5734856267e-03	(9.9057307314e-01 -4.9679370155e-01 -1.5516662214e-17)	0	3.2368120796e-02	(9.8503171171e-01 -5.0330755373e-01 0.0000000000e+00)	0
0.000581944       	p                 	0.0000000000e+00	(-5.0000000000e-02 -5.5000000000e-01 1.4456028966e-17)	0	1.0293444587e+01	(-2.5000000000e-01 -5.5000000000e-01 0.0000000000e+00)	0
0.000581944       	omega             	1.4990249614e+01	(1.1950000000e+01 5.9500000000e+00 3.0454034356e-17)	3	7.8142744299e+04	(9.8503292851e-01 -4.9694455384e-01 0.0000000000e+00)	0
0.000710352       	nut               	0.0000000000e+00	(1.0437660152e-01 -4.5240787288e-01 0.0000000000e+00)	0	6.6683283509e-04	(-4.3585908892e-02 -5.4354520645e-01 1.4334060969e-17)	0
0.000710352       	U                 	(4.9802592703e-01 -4.9449576736e-01 -2.6466865176e-25)	(-1.5748143502e-03 -5.0830803500e-01 0.0000000000e+00)	0	(1.1234919853e+00 2.6437128275e-01 6.4475572552e-25)	(8.4416298001e-02 -4.5320632249e-01 0.0000000000e+00)	0
0.000710352       	k                 	7.1780050908e-03	(9.8503305662e-01 -4.9697094315e-01 0.0000000000e+00)	0	3.2568223815e-02	(9.8503157132e-01 -5.0333394298e-01 0.0000000000e+00)	0
0.000710352       	p                 	0.0000000000e+00	(-5.0000000000e-02 -5.5000000000e-01 1.4456028966e-17)	0	4.1066921039e+00	(-1.5708991427e-03 -4.9152325095e-01 0.0000000000e+00)	0
0.000710352       	omega             	1.4988100018e+01	(1.1950000000e+01 5.9500000000e+00 3.0454034356e-17)	3	7.8142694339e+04	(9.8503305662e-01 -4.9697094315e-01 0.0000000000e+00)	0
0.000864481       	nut               	0.0000000000e+00	(1.0437901195e-01 -4.5239494825e-01 0.0000000000e+00)	0	6.6686926458e-04	(1.2614201688e-02 -4.1257929205e-01 3.0473800548e-17)	0
0.000864481       	U                 	(3.2056826147e-01 -1.8663224635e-01 -6.7518709414e-26)	(-8.4889989966e-03 -5.0288544882e-01 -2.3582181762e-17)	0	(1.1846221791e+00 2.4464840102e-01 2.0773726276e-25)	(9.7079479817e-02 -4.4154106430e-01 0.0000000000e+00)	0
0.000864481       	k                 	6.6380682367e-03	(9.8503320884e-01 -4.9700262287e-01 0.0000000000e+00)	0	3.2034795984e-02	(9.8503140127e-01 -5.0336562261e-01 0.0000000000e+00)	0
0.000864481       	p                 	0.0000000000e+00	(-5.0000000000e-02 -5.5000000000e-01 1.4456028966e-17)	0	3.1683140884e+00	(-1.5704697307e-03 -4.9150496013e-01 -3.2698250419e-17)	0
0.000864481       	omega             	1.4985520728e+01	(1.1950000000e+01 5.9500000000e+00 3.0454034356e-17)	3	7.8142635746e+04	(9.8503320884e-01 -4.9700262287e-01 0.0000000000e+00)	0
0.00104938        	nut               	0.0000000000e+00	(1.0438190436e-01 -4.5237944957e-01 0.0000000000e+00)	0	6.6691388608e-04	(1.2619513480e-02 -4.1255821777e-01 -3.0473800548e-17)	0
0.00104938        	U                 	(4.7835855843e-01 -4.8224855855e-01 -2.9128538613e-24)	(-1.5757386616e-03 -5.0826780735e-01 -1.5140254316e-17)	0	(1.1186315900e+00 4.0119320652e-01 3.1809422018e-26)	(4.7298592891e-02 -4.5435406735e-01 -3.7963719220e-17)	0
0.00104938        	k                 	6.0376827546e-03	(9.8503338924e-01 -4.9704063304e-01 0.0000000000e+00)	0	3.0794193037e-02	(9.8503119505e-01 -5.0340363266e-01 0.0000000000e+00)	0
0.00104938        	p                 	-2.3652580101e-01	(9.9581288703e-01 -4.9724166006e-01 0.0000000000e+00)	0	2.5953487250e+00	(-1.5699534701e-03 -4.9148302384e-01 0.0000000000e+00)	0
0.00104938        	omega             	1.4982427819e+01	(1.1950000000e+01 5.9500000000e+00 3.0454034356e-17)	3	7.8142568830e+04	(9.8503338924e-01 -4.9704063304e-01 0.0000000000e+00)	0
0.00127118        	nut               	0.0000000000e+00	(1.0438537508e-01 -4.5236086675e-01 0.0000000000e+00)	0	6.6696777640e-04	(1.2625886858e-02 -4.1253294687e-01 2.3279915426e-17)	0
0.00127118        	U                 	(6.9935855451e-01 -2.7413720803e-01 -1.2389473160e-25)	(-1.7996814593e-02 -5.1818655324e-01 0.0000000000e+00)	0	(1.1164696780e+00 3.9966322228e-01 3.0742089409e-26)	(4.7301919844e-02 -4.5433132396e-01 0.0000000000e+00)	0
0.00127118        	k                 	5.3910360382e-03	(9.8503360245e-01 -4.9708623726e-01 0.0000000000e+00)	0	3.2349752623e-02	(9.9057954604e-01 -5.0364353957e-01 0.0000000000e+00)	0
0.00127118        	p                 	0.0000000000e+00	(-5.0000000000e-02 -5.5000000000e-01 1.4456028966e-17)	0	3.2921177079e+00	(-1.5693325680e-03 -4.9145671852e-01 -5.7826379945e-17)	0
0.00127118        	omega             	1.4978719549e+01	(1.1950000000e+01 5.9500000000e+00 3.0454034356e-17)	3	7.8142494423e+04	(9.8503360245e-01 -4.9708623726e-01 0.0000000000e+00)	0
0.00153721        	nut               	0.0000000000e+00	(1.0438953971e-01 -4.5233858975e-01 0.0000000000e+00)	0	6.6702317865e-04	(3.7647959611e-02 -4.1265093299e-01 2.2728261090e-17)	0
0.00153721        	U                 	(3.9032833443e-01 -3.2218263909e-01 -6.1545276849e-25)	(9.8370777644e-01 -4.9312447293e-01 1.2095784466e-17)	0	(1.1134689608e+00 3.9809424958e-01 1.0215589841e-25)	(4.7305912424e-02 -4.5430405643e-01 -2.9444561731e-17)	0
0.00153721        	k                 	4.7183418934e-03	(9.8503385360e-01 -4.9714095074e-01 0.0000000000e+00)	0	3.3856561813e-02	(9.9057922390e-01 -5.0369873788e-01 0.0000000000e+00)	0
0.00153721        	p                 	-3.7648851792e-01	(9.9581331903e-01 -4.9734370583e-01 -3.4388488345e-17)	0	2.1977609718e+00	(-1.5685854874e-03 -4.9142517828e-01 0.0000000000e+00)	0
0.00153721        	omega             	1.4974274259e+01	(1.1950000000e+01 5.9500000000e+00 3.0454034356e-17)	3	7.8142414282e+04	(9.8503385360e-01 -4.9714095074e-01 0.0000000000e+00)	0
0.00185628        	nut               	0.0000000000e+00	(1.0439453692e-01 -4.5231188941e-01 0.0000000000e+00)	0	6.6709860027e-04	(3.7657118630e-02 -4.1261723468e-01 0.0000000000e+00)	0
0.00185628        	U                 	(4.4430134814e-01 -4.5536312787e-01 -6.0805628946e-25)	(-1.5779220617e-03 -5.0817214888e-01 -7.5701271581e-18)	0	(1.1053252645e+00 3.6915658329e-02 2.3345938995e-24)	(2.4688328751e-01 -5.7090040584e-01 0.0000000000e+00)	0
0.00185628        	k                 	4.0442743839e-03	(9.8503414822e-01 -4.9720659002e-01 0.0000000000e+00)	0	3.4883408863e-02	(9.9057883087e-01 -5.0376495858e-01 -1.4390860842e-17)	0
0.00185628        	p                 	-5.5182727607e-01	(9.9581359233e-01 -4.9741047539e-01 0.0000000000e+00)	0	1.9133161118e+00	(-2.4558259851e-03 -4.9684793752e-01 3.1235076103e-17)	0
0.00185628        	omega             	1.4968946574e+01	(1.1950000000e+01 5.9500000000e+00 3.0454034356e-17)	3	7.8142330913e+04	(9.8503414822e-01 -4.9720659002e-01 0.0000000000e+00)	0
0.0022388         	nut               	0.0000000000e+00	(1.0440053112e-01 -4.5227990516e-01 0.0000000000e+00)	0	6.6718874825e-04	(3.7668103222e-02 -4.1257686145e-01 -4.4807637656e-17)	0
0.0022388         	U                 	(6.8086957484e-01 -3.4999570782e-01 -1.5395378059e-24)	(1.0123486507e-02 -5.2086377193e-01 3.6408625265e-17)	0	(1.1925685698e+00 4.7504390281e-02 1.5312119297e-24)	(2.4748202877e-01 -4.3551034096e-01 0.0000000000e+00)	0
0.0022388         	k                 	3.3951879542e-03	(9.8503449193e-01 -4.9728530715e-01 0.0000000000e+00)	0	3.5319909773e-02	(9.9057835011e-01 -5.0384437266e-01 0.0000000000e+00)	0
0.0022388         	p                 	-6.4738045702e-01	(9.9581391032e-01 -4.9749054756e-01 0.0000000000e+00)	0	1.7268496356e+00	(-2.4554293854e-03 -4.9680252118e-01 3.6506846727e-17)	0
0.0022388         	omega             	1.4962564985e+01	(1.1950000000e+01 5.9500000000e+00 3.0454034356e-17)	3	7.8142247373e+04	(9.8503449193e-01 -4.9728530715e-01 0.0000000000e+00)	0
0.00269764        	nut               	0.0000000000e+00	(1.0440772621e-01 -4.5224157477e-01 0.0000000000e+00)	0	6.6729579233e-04	(3.7681285934e-02 -4.1252846884e-01 -2.2728261090e-17)	0
0.00269764        	U                 	(6.5869271012e-01 -4.1653183356e-01 -3.4847640502e-24)	(-4.7790079565e-03 -5.1731016146e-01 -2.8452755878e-17)	0	(1.2192168300e+00 4.9236238798e-01 2.1075345901e-25)	(1.0057206869e+00 -5.0664621926e-01 -1.4929121628e-17)	0
0.00269764        	k                 	2.7970830936e-03	(9.8503489058e-01 -4.9737976817e-01 0.0000000000e+00)	0	3.5106729737e-02	(9.9057775964e-01 -5.0393966957e-01 0.0000000000e+00)	0
0.00269764        	p                 	-7.0094809402e-01	(9.9581427790e-01 -4.9758663401e-01 -2.2925658897e-17)	0	1.5869363553e+00	(-2.4549467119e-03 -4.9674807734e-01 0.0000000000e+00)	0
0.00269764        	omega             	1.4954917888e+01	(1.1950000000e+01 5.9500000000e+00 3.0454034356e-17)	3	7.8142166930e+04	(9.8503489058e-01 -4.9737976817e-01 0.0000000000e+00)	0
0.00324877        	nut               	0.0000000000e+00	(1.0441637528e-01 -4.5219558643e-01 0.0000000000e+00)	0	6.6742145744e-04	(3.7697128994e-02 -4.1247039557e-01 -3.7015255785e-17)	0
0.00324877        	U                 	(6.4541719079e-01 -3.8357516439e-01 -3.9720491111e-25)	(1.0116572006e-02 -5.2074815769e-01 0.0000000000e+00)	0	(1.0800274179e+00 2.9210745569e-01 1.6293147870e-25)	(6.8991906889e-02 -4.3164556099e-01 2.9862167478e-17)	0
0.00324877        	k                 	2.2706006711e-03	(9.8503534972e-01 -4.9749327945e-01 0.0000000000e+00)	0	3.4294460347e-02	(9.9575139494e-01 -5.0424015593e-01 3.9214170095e-17)	0
0.00324877        	p                 	-7.2875950139e-01	(9.9581469940e-01 -4.9770209767e-01 1.2229492628e-17)	0	1.4714678418e+00	(-2.4543569607e-03 -4.9668273317e-01 0.0000000000e+00)	0
0.00324877        	omega             	1.4945744130e+01	(1.1950000000e+01 5.9500000000e+00 3.0454034356e-17)	3	7.8142092805e+04	(9.8503534972e-01 -4.9749327945e-01 0.0000000000e+00)	0
0.00390901        	nut               	0.0000000000e+00	(1.0442674672e-01 -4.5214056497e-01 0.0000000000e+00)	0	6.6756558663e-04	(3.7716121801e-02 -4.1240089793e-01 0.0000000000e+00)	0
0.00390901        	U                 	(8.1487189367e-01 -3.5544070576e-01 -1.4558825340e-24)	(-5.5722285175e-03 -5.3020468086e-01 0.0000000000e+00)	0	(1.1269919464e+00 3.2821483858e-01 1.1132008779e-25)	(8.1410137402e-02 -4.4416401560e-01 0.0000000000e+00)	0
0.00390901        	k                 	1.8282298754e-03	(9.8503587149e-01 -4.9762933854e-01 0.0000000000e+00)	0	3.4169533513e-02	(9.9575045248e-01 -5.0437854009e-01 -2.7170764346e-17)	0
0.00390901        	p                 	-7.3571454394e-01	(9.9581517560e-01 -4.9784049572e-01 -2.2925658897e-17)	0	1.3761125419e+00	(-2.4536360723e-03 -4.9660452124e-01 0.0000000000e+00)	0
0.00390901        	omega             	1.4934770280e+01	(1.1950000000e+01 5.9500000000e+00 3.0454034356e-17)	3	7.8142027556e+04	(9.8503587149e-01 -4.9762933854e-01 0.0000000000e+00)	0
0.0046997         	nut               	0.0000000000e+00	(1.0443918165e-01 -4.5207477329e-01 0.0000000000e+00)	0	6.6772545541e-04	(3.7738885902e-02 -4.1231777188e-01 2.9871758438e-17)	0
0.0046997         	U                 	(6.6309573945e-01 -4.3321036929e-01 -8.2280995260e-24)	(-4.7903421302e-03 -5.1707150417e-01 1.4599555165e-17)	0	(1.2135720418e+00 4.5164079318e-01 2.3344201413e-24)	(1.0057161506e+00 -5.0707244394e-01 -1.4112907382e-17)	0
0.0046997         	k                 	1.4718872586e-03	(9.8503645577e-01 -4.9779238420e-01 0.0000000000e+00)	0	3.3492830063e-02	(9.9574928253e-01 -5.0454436985e-01 0.0000000000e+00)	0
0.0046997         	p                 	-7.7610078117e-01	(9.9581570465e-01 -4.9800634253e-01 -1.0696166269e-17)	0	1.2399569542e+00	(-2.4527521303e-03 -4.9651095367e-01 1.9795399787e-17)	0
0.0046997         	omega             	1.4921651370e+01	(1.1950000000e+01 5.9500000000e+00 3.0454034356e-17)	3	7.8141972731e+04	(9.8503645577e-01 -4.9779238420e-01 0.0000000000e+00)	0
0.00564775        	nut               	0.0000000000e+00	(1.0445411201e-01 -4.5199602841e-01 0.0000000000e+00)	0	6.6775726557e-04	(-3.7479182953e-02 -5.6165414349e-01 -8.5994532751e-18)	0
0.00564775        	U                 	(2.1592389850e-01 -1.9471397577e-01 -2.5244875010e-24)	(-2.4625414462e-03 -5.0226145132e-01 0.0000000000e+00)	0	(1.2069921989e+00 4.3561262056e-01 1.2239948405e-24)	(1.0057139002e+00 -5.0727452890e-01 3.0674457502e-17)	0
0.00564775        	k                 	1.1969078039e-03	(9.8503709805e-01 -4.9798802594e-01 0.0000000000e+00)	0	3.2271177739e-02	(9.9574782041e-01 -5.0474334932e-01 0.0000000000e+00)	0
0.00564775        	p                 	-7.1750450784e-01	(9.9581627973e-01 -4.9820534301e-01 0.0000000000e+00)	0	1.2010531412e+00	(-2.4516626282e-03 -4.9639889975e-01 0.0000000000e+00)	0
0.00564775        	omega             	1.4905954614e+01	(1.1950000000e+01 5.9500000000e+00 3.0454034356e-17)	3	7.8141928568e+04	(9.8503709805e-01 -4.9798802594e-01 0.0000000000e+00)	0
0.00678432        	nut               	0.0000000000e+00	(1.0447204045e-01 -4.5190182310e-01 0.0000000000e+00)	0	6.6798726402e-04	(-3.7502208612e-02 -5.6150690978e-01 -1.5784645159e-17)	0
0.00678432        	U                 	(2.8934631443e-01 -2.3997604472e-01 -7.5371460936e-25)	(9.9057822484e-01 -4.9808320999e-01 -2.9496961590e-17)	0	(1.0805504017e+00 1.9781646989e-02 1.1206532956e-24)	(3.6545746607e-01 -5.7197992281e-01 0.0000000000e+00)	0
0.00678432        	k                 	9.9098058177e-04	(9.8503778423e-01 -4.9822276897e-01 0.0000000000e+00)	0	3.0565212229e-02	(9.9574598231e-01 -5.0498209299e-01 0.0000000000e+00)	0
0.00678432        	p                 	-6.8448594573e-01	(9.9581688398e-01 -4.9844411270e-01 0.0000000000e+00)	0	1.1300052326e+00	(-2.4503139103e-03 -4.9626475550e-01 0.0000000000e+00)	0
0.00678432        	omega             	1.4887184413e+01	(1.1950000000e+01 5.9500000000e+00 3.0454034356e-17)	3	7.8141894489e+04	(9.8503778423e-01 -4.9822276897e-01 0.0000000000e+00)	0
0.00814499        	nut               	0.0000000000e+00	(1.0449354632e-01 -4.5178931251e-01 0.0000000000e+00)	0	6.6826433335e-04	(-3.7529708165e-02 -5.6133089187e-01 1.5784645159e-17)	0
0.00814499        	U                 	(6.9975153239e-01 -3.1682058785e-01 -5.5643773954e-25)	(2.1874116044e-02 -5.2724687948e-01 -8.1469148595e-18)	0	(1.1854915782e+00 3.9980725648e-01 1.1818296778e-24)	(1.0057076584e+00 -5.0780754801e-01 0.0000000000e+00)	0
0.00814499        	k                 	8.3995654848e-04	(9.8503848552e-01 -4.9850407667e-01 0.0000000000e+00)	0	2.8486202700e-02	(9.9574365950e-01 -5.0526818913e-01 0.0000000000e+00)	0
0.00814499        	p                 	-7.0097247816e-01	(9.9581748520e-01 -4.9873024121e-01 0.0000000000e+00)	0	1.0025007608e+00	(-2.4486381649e-03 -4.9610442068e-01 1.1439676316e-17)	0
0.00814499        	omega             	1.4864780907e+01	(1.1950000000e+01 5.9500000000e+00 3.0454034356e-17)	3	7.8141868967e+04	(9.8503848552e-01 -4.9850407667e-01 0.0000000000e+00)	0
0.00977088        	nut               	0.0000000000e+00	(1.0451930430e-01 -4.5165523897e-01 0.0000000000e+00)	0	6.6839618947e-04	(-6.2502372367e-02 -5.3609426104e-01 1.5816597907e-17)	0
0.00977088        	U                 	(2.9619862251e-01 -3.0615146032e-01 -2.4223723752e-24)	(-1.5981051568e-03 -5.0723964380e-01 0.0000000000e+00)	0	(1.2854124749e+00 1.1791617890e-01 2.6438609162e-24)	(9.9352707402e-01 -5.1994229667e-01 0.0000000000e+00)	0
0.00977088        	k                 	7.2774710253e-04	(9.8503915170e-01 -4.9884059122e-01 0.0000000000e+00)	0	2.6174334782e-02	(9.9574070917e-01 -5.0561042394e-01 -1.3585382173e-17)	0
0.00977088        	p                 	-6.2697259333e-01	(9.9581802897e-01 -4.9907251641e-01 -2.2925658897e-17)	0	9.7693637015e-01	(-2.4465484940e-03 -4.9591318708e-01 -3.6506846727e-17)	0
0.00977088        	omega             	1.4838107021e+01	(1.1950000000e+01 5.9500000000e+00 3.0454034356e-17)	3	7.8141850250e+04	(9.8503915170e-01 -4.9884059122e-01 0.0000000000e+00)	0
0.011712          	nut               	0.0000000000e+00	(1.0455014204e-01 -4.5149566203e-01 0.0000000000e+00)	0	6.6867929709e-04	(-6.2525379685e-02 -5.3582809329e-01 0.0000000000e+00)	0
0.011712          	U                 	(2.5864679541e-01 -2.5844387999e-01 -5.7357334190e-24)	(9.9058036144e-01 -4.9911226434e-01 0.0000000000e+00)	0	(1.1499527058e+00 3.5619619727e-01 6.8715147682e-24)	(1.0056979522e+00 -5.0857054890e-01 0.0000000000e+00)	0
0.011712          	k                 	6.4223914770e-04	(9.8503970205e-01 -4.9924284898e-01 0.0000000000e+00)	0	2.3921138813e-02	(9.7146873334e-01 -5.0959518912e-01 -2.4664207438e-17)	0
0.011712          	p                 	-5.7919493198e-01	(9.9581842913e-01 -4.9948165194e-01 0.0000000000e+00)	0	9.2446958290e-01	(-2.4439291973e-03 -4.9568534808e-01 1.9795399787e-17)	0
0.011712          	omega             	1.4806398258e+01	(1.1950000000e+01 5.9500000000e+00 3.0454034356e-17)	3	7.8141836344e+04	(9.8503970205e-01 -4.9924284898e-01 0.0000000000e+00)	0
0.0140365         	nut               	0.0000000000e+00	(1.0458719398e-01 -4.5130520959e-01 0.0000000000e+00)	0	6.6901810807e-04	(-1.2014013384e-02 -4.1090045002e-01 2.3943113512e-17)	0
0.0140365         	U                 	(5.9531978247e-01 -2.5704462895e-01 -1.5957844119e-24)	(2.1821781326e-02 -5.2660262746e-01 3.5037467603e-17)	0	(1.1566359597e+00 2.4977655203e-01 4.4771555357e-25)	(9.4220298063e-02 -4.3078557556e-01 2.2695328218e-17)	0
0.0140365         	k                 	5.7376170190e-04	(9.8504001018e-01 -4.9972522183e-01 0.0000000000e+00)	0	2.1764428880e-02	(9.7743256079e-01 -5.0973685995e-01 0.0000000000e+00)	0
0.0140365         	p                 	-5.6286752954e-01	(2.4640670908e-01 -4.3891286653e-01 0.0000000000e+00)	0	8.7453461687e-01	(-2.4406142237e-03 -4.9541312162e-01 0.0000000000e+00)	0