# Moment          
# CofR            : (0.0000000000e+00 0.0000000000e+00 0.0000000000e+00)
#
# Time            	total_x total_y total_z	pressure_x pressure_y pressure_z	viscous_x viscous_y viscous_z
0.609524           3.4520332176e-22 1.0287605006e-22 2.3507581979e-01 2.6691365946e-22 1.3539357746e-22 2.0805815603e-01 7.8289662298e-23 -3.2517527394e-23 2.7017663763e-02
0.619048           9.3668851473e-22 9.1126203298e-22 2.3819364926e-01 1.0338316263e-21 9.7694353211e-22 2.1145528385e-01 -9.7143111593e-23 -6.5681499133e-23 2.6738365412e-02
0.628571           -4.7995365267e-22 -3.0278088431e-22 2.3466524750e-01 -5.8668229728e-22 -2.7995678463e-22 2.0819865797e-01 1.0672864461e-22 -2.2824099676e-23 2.6466589531e-02
0.638095           7.1838396908e-23 7.9723795343e-23 2.3552307346e-01 1.6412344722e-22 1.3967682103e-22 2.0930075640e-01 -9.2285050308e-23 -5.9953025688e-23 2.6222317053e-02
0.647619           -4.7893423316e-22 -1.3806862768e-22 2.3774462951e-01 -3.5547248238e-22 -1.0733279472e-22 2.1178809515e-01 -1.2346175078e-22 -3.0735832963e-23 2.5956534358e-02
0.657143           -7.9824253597e-22 -6.8957245988e-22 2.3705790558e-01 -6.3477339177e-22 -6.7642709183e-22 2.1139104458e-01 -1.6346914421e-22 -1.3145368049e-23 2.5666860996e-02
0.666667           4.8804113575e-22 5.0889760747e-23 2.3520251849e-01 4.1746692974e-22 -2.1393799597e-23 2.0980765982e-01 7.0574206009e-23 7.2283560345e-23 2.5394858668e-02
0.67619            4.5637851214e-22 1.7284645231e-22 2.4434266161e-01 5.0203104304e-22 1.4762204454e-22 2.1924032061e-01 -4.5652530898e-23 2.5224407774e-23 2.5102340996e-02
0.685714           -2.1170421624e-22 -3.2213474581e-22 2.4098338195e-01 -1.5096532600e-22 -3.5015116073e-22 2.1610505280e-01 -6.0738890246e-23 2.8016414916e-23 2.4878329148e-02
0.695238           -5.4646947981e-22 -2.7733702159e-22 2.4088317119e-01 -6.1568924742e-22 -3.5218808860e-22 2.1624810357e-01 6.9219767602e-23 7.4851067015e-23 2.4635067621e-02
0.704762           -7.2120243973e-22 -1.1229460466e-21 2.4143703216e-01 -8.0807070882e-22 -1.1688058997e-21 2.1704156431e-01 8.6868269087e-23 4.5859853094e-23 2.4395467846e-02
0.714286           1.1144028088e-22 1.4259768599e-22 2.4050367538e-01 4.6644509909e-23 1.4971475032e-22 2.1635189625e-01 6.4795770967e-23 -7.1170643265e-24 2.4151779129e-02
0.72381            -8.7971890193e-23 -1.6786196542e-22 2.4319583445e-01 -2.3690641641e-23 -1.9492261629e-22 2.1928808002e-01 -6.4281248552e-23 2.7060650868e-23 2.3907754426e-02
0.733333           -4.2665652451e-22 -3.0803273653e-22 2.4268172763e-01 -3.5003936021e-22 -2.9121283450e-22 2.1901336226e-01 -7.6617164305e-23 -1.6819902028e-23 2.3668365369e-02
0.742857           -4.3321012853e-22 -4.0108827161e-22 2.3703343268e-01 -2.6984964254e-22 -3.3257453630e-22 2.1361562857e-01 -1.6336048598e-22 -6.8513735306e-23 2.3417804111e-02
0.752381           -6.8948030875e-22 -8.7410046146e-22 2.3652450881e-01 -5.4601507233e-22 -7.9052021367e-22 2.1333423569e-01 -1.4346523641e-22 -8.3580247793e-23 2.3190273118e-02
0.761905           -8.1332393014e-22 -7.0273967873e-22 2.3905118407e-01 -1.1594955765e-21 -8.7871238203e-22 2.1607606616e-01 3.4617164638e-22 1.7597270331e-22 2.2975117908e-02
0.771429           9.3896329802e-23 1.1810868261e-22 2.3580536657e-01 7.1936176488e-23 9.8071085572e-23 2.1306095447e-01 2.1960153314e-23 2.0037597036e-23 2.2744412103e-02
0.780952           6.4036851349e-23 -1.1673009549e-22 2.3982591674e-01 3.2460737769e-22 3.5781861169e-23 2.1732289676e-01 -2.6057052634e-22 -1.5251195666e-22 2.2503019973e-02
0.790476           4.1848967197e-22 3.7603253002e-22 2.4122423362e-01 4.9484439695e-22 4.1771838440e-22 2.1894733352e-01 -7.6354724975e-23 -4.1685854374e-23 2.2276900096e-02
0.8                2.2784654541e-22 2.3705090600e-22 2.4324803858e-01 2.3420510694e-22 2.6498807549e-22 2.2120104541e-01 -6.3585615301e-24 -2.7937169488e-23 2.2046993174e-02
0.809091           1.2938698875e-22 -2.6709479802e-22 2.4051642919e-01 4.5271224407e-23 -3.4052100855e-22 2.1862597428e-01 8.4115764341e-23 7.3426210533e-23 2.1890454908e-02
0.818182           -4.7774504965e-22 -3.6826964807e-23 2.3660293172e-01 -4.3704547945e-22 8.9591804600e-23 2.1492757858e-01 -4.0699570198e-23 -1.2641876941e-22 2.1675353143e-02
0.827273           -1.5958418016e-24 2.8933497951e-23 2.4151368406e-01 7.3319717689e-23 8.8534527794e-23 2.2004907094e-01 -7.4915559490e-23 -5.9601029842e-23 2.1464613122e-02
0.836364           -4.5051422471e-22 -5.4809452742e-22 2.4834181863e-01 -4.7447003090e-22 -6.1448867983e-22 2.2707637632e-01 2.3955806193e-23 6.6394152407e-23 2.1265442314e-02
0.845455           -2.3648639622e-21 -2.6116304703e-21 2.4538133286e-01 -2.4225529852e-21 -2.6417909429e-21 2.2432293509e-01 5.7689022928e-23 3.0160472598e-23 2.1058397769e-02
0.854545           -7.8850265081e-22 -7.1536412224e-22 2.3832520653e-01 -6.1905697714e-22 -6.1037027663e-22 2.1745185528e-01 -1.6944567367e-22 -1.0499384561e-22 2.0873351253e-02
0.863636           -1.4263365113e-21 -1.9494351620e-21 2.4282508935e-01 -1.6259271101e-21 -2.0919324338e-21 2.2217964762e-01 1.9959059883e-22 1.4249727184e-22 2.0645441730e-02
0.872727           -1.3595448352e-22 -2.1801584302e-22 2.4197909994e-01 1.2772298192e-22 -1.3284643245e-23 2.2158909815e-01 -2.6367746543e-22 -2.0473119978e-22 2.0390001786e-02
0.881818           -1.7729389865e-22 -2.1431322554e-22 2.4503857043e-01 -7.2342225190e-23 -1.0065605598e-22 2.2486142911e-01 -1.0495167347e-22 -1.1365716956e-22 2.0177141322e-02
0.890909           6.5115332575e-22 3.3128740260e-22 2.4652591260e-01 6.8550936409e-22 3.6126654951e-22 2.2655187591e-01 -3.4356038349e-23 -2.9979146917e-23 1.9974036691e-02
0.9                -8.5965709512e-23 6.2918198943e-23 2.4236545870e-01 2.4024684700e-23 1.4508516669e-22 2.2262025317e-01 -1.0999039421e-22 -8.2166967745e-23 1.9745205533e-02
0.909091           1.1183357388e-22 -1.2520506124e-22 2.4651753869e-01 1.5865144693e-22 -1.0222789725e-22 2.2697402225e-01 -4.6817873048e-23 -2.2977163989e-23 1.9543516437e-02
0.918182           1.6255430561e-22 2.0979567889e-22 2.4218412035e-01 1.2677219823e-22 2.0358790999e-22 2.2284116412e-01 3.5782107374e-23 6.2077689062e-24 1.9342956228e-02
0.927273           -2.7644245845e-22 -8.1935238439e-22 2.3335050705e-01 -1.3689679628e-22 -7.8881693831e-22 2.1409970231e-01 -1.3954566218e-22 -3.0535446075e-23 1.9250804736e-02
0.936364           -5.4640297164e-22 -2.5971412693e-22 2.4491138885e-01 -6.0758450141e-22 -2.7783275246e-22 2.2581581823e-01 6.1181529770e-23 1.8118625521e-23 1.9095570618e-02
0.945455           2.7589360065e-22 4.2417408801e-22 2.4374527755e-01 5.9325478583e-22 7.2441225583e-22 2.2480066098e-01 -3.1736118519e-22 -3.0023816781e-22 1.8944616566e-02
0.954545           -2.5464962667e-22 -5.8713836448e-23 2.2501214123e-01 -3.2230262682e-22 -1.3929937151e-22 2.0626360030e-01 6.7653000144e-23 8.0585535060e-23 1.8748540929e-02
0.963636           -4.2353822224e-22 -3.5414633986e-22 2.4557037061e-01 -2.9845792503e-22 -2.3899473429e-22 2.2700498977e-01 -1.2508029721e-22 -1.1515160557e-22 1.8565380836e-02
0.972727           -1.3455179802e-21 -9.8193393449e-22 2.3968518411e-01 -1.3264292836e-21 -1.0086386650e-21 2.2132429869e-01 -1.9088696619e-23 2.6704730522e-23 1.8360885422e-02
0.981818           -1.7170812560e-22 -3.2083395161e-22 2.4415459775e-01 -3.4559354769e-22 -3.8185099392e-22 2.2598022592e-01 1.7388542210e-22 6.1017042308e-23 1.8174371831e-02
0.990909           -6.6195610909e-22 -6.0976786997e-22 2.4673600407e-01 -1.0302916308e-21 -8.0322466730e-22 2.2871865223e-01 3.6833552171e-22 1.9345679734e-22 1.8017351834e-02
1                  4.0544843863e-22 3.3617074414e-22 2.4428709291e-01 5.0861623754e-22 4.0640320159e-22 2.2645403024e-01 -1.0316779891e-22 -7.0232457451e-23 1.7833062671e-02
1.0087             5.1270820878e-22 3.3033833195e-22 2.4166187690e-01 6.1583815736e-22 3.8754010092e-22 2.2401408084e-01 -1.0312994858e-22 -5.7201768973e-23 1.7647796063e-02
1.01739            -5.2710245912e-22 -5.5565829033e-22 2.3397536660e-01 -4.9089016689e-22 -5.4823420796e-22 2.1654856079e-01 -3.6212292231e-23 -7.4240823684e-24 1.7426805810e-02
1.02609            -6.6677352661e-22 -5.1295214857e-22 2.3663276391e-01 -7.4719437832e-22 -4.6307253087e-22 2.1936541625e-01 8.0420851707e-23 -4.9879617695e-23 1.7267347661e-02
1.03478            2.8273744187e-22 4.0436876778e-22 2.3692674351e-01 3.2185151746e-22 4.2487897415e-22 2.1980490808e-01 -3.9114075597e-23 -2.0510206365e-23 1.7121835425e-02
1.04348            2.2442970261e-22 4.1381866595e-22 2.4159780109e-01 5.5012453776e-22 6.3790766144e-22 2.2465625137e-01 -3.2569483515e-22 -2.2408899548e-22 1.6941549722e-02
1.05217            7.5454720931e-22 2.8683285718e-22 2.4262074263e-01 6.8605453811e-22 2.5447335285e-22 2.2585911299e-01 6.8492671200e-23 3.2359504333e-23 1.6761629641e-02
1.06087            -1.2883849434e-22 -1.2061474201e-22 2.4303131862e-01 -4.6867596730e-22 -4.6192510105e-22 2.2644612846e-01 3.3983747297e-22 3.4131035905e-22 1.6585190158e-02
1.06957            -3.1119107894e-22 -4.5854913200e-22 2.4459082204e-01 -3.5872427301e-22 -5.3192155276e-22 2.2817853089e-01 4.7533194071e-23 7.3372420761e-23 1.6412291157e-02
1.07826            2.5083358060e-23 -1.5261851404e-23 2.4274245222e-01 3.8819265355e-23 1.7449086053e-22 2.2650714263e-01 -1.3735907295e-23 -1.8975271193e-22 1.6235309590e-02
1.08696            5.6465223564e-22 2.6043862589e-22 2.4350213790e-01 5.3571026827e-22 1.9295394130e-22 2.2744171820e-01 2.8941967375e-23 6.7484684592e-23 1.6060419701e-02
1.09565            1.2752217791e-21 8.0554841277e-22 2.3679919849e-01 1.4084927553e-21 8.6439086740e-22 2.2089117190e-01 -1.3327097620e-22 -5.8842454625e-23 1.5908026588e-02
1.10435            -3.7907876228e-22 7.6691060170e-23 2.5021494272e-01 -3.5105277394e-22 1.1245588614e-22 2.3447587624e-01 -2.8025988337e-23 -3.5764825966e-23 1.5739066480e-02
1.11304            -7.8515567087e-24 -2.8729724343e-22 2.4200851935e-01 1.9396724602e-22 -3.5640641944e-23 2.2644447926e-01 -2.0181880273e-22 -2.5165660148e-22 1.5564040089e-02
1.12174            -8.1287249825e-22 -9.0626057165e-22 2.3516286359e-01 -1.0489823363e-21 -1.1786190854e-21 2.1977834611e-01 2.3610983807e-22 2.7235851378e-22 1.5384517471e-02
1.13043            -6.3150012868e-22 -5.2470061917e-22 2.4780236770e-01 -4.7798730795e-22 -3.9508463518e-22 2.3254095068e-01 -1.5351282072e-22 -1.2961598399e-22 1.5261417019e-02
1.13913            -1.4987972642e-22 -2.3149201019e-22 2.3557404231e-01 -7.0320632526e-23 -1.8995621133e-22 2.2049816214e-01 -7.9559093898e-23 -4.1535798868e-23 1.5075880172e-02
1.14783            -1.0621962146e-21 -9.9148989309e-22 2.3959120416e-01 -1.1467967814e-21 -1.1375488934e-21 2.2471347647e-01 8.4600566782e-23 1.4605900035e-22 1.4877727693e-02
1.15652            1.7307532120e-22 2.6126542409e-22 2.4505283343e-01 8.8144172292e-23 2.3457954308e-22 2.3033461741e-01 8.4931148908e-23 2.6685881005e-23 1.4718216029e-02
1.16522            -4.4848082196e-23 -9.4176464516e-23 2.4241050269e-01 -4.9800556075e-23 -5.6203619017e-23 2.2785554704e-01 4.9524738791e-24 -3.7972845499e-23 1.4554955650e-02
1.17391            1.9846200338e-22 -1.8041863175e-22 2.4359377152e-01 3.6215287621e-22 5.4542394713e-24 2.2920239987e-01 -1.6369087283e-22 -1.8587287122e-22 1.4391371655e-02
1.18261            8.2568025250e-22 1.1152075492e-21 2.4707460028e-01 1.0016381976e-21 1.2547302477e-21 2.3283714866e-01 -1.7595794510e-22 -1.3952269846e-22 1.4237451618e-02
1.1913             -6.9374591685e-22 -1.1315105280e-21 2.4112834549e-01 -8.0612600029e-22 -1.2395168393e-21 2.2705987284e-01 1.1238008344e-22 1.0800631127e-22 1.4068472651e-02
1.2                5.8302046111e-22 6.7196799434e-22 2.5288531846e-01 7.9265583643e-22 7.6468122925e-22 2.3896770820e-01 -2.0963537531e-22 -9.2713234913e-23 1.3917610262e-02
1.20833            -5.9231613208e-22 -5.0690459585e-22 2.4281468272e-01 -4.8266136081e-22 -4.4566826053e-22 2.2905521130e-01 -1.0965477127e-22 -6.1236335324e-23 1.3759471422e-02
1.21667            -9.2871261176e-22 -7.3194386811e-22 2.3432836133e-01 -1.3251711530e-21 -1.0144800588e-21 2.2071322661e-01 3.9645854127e-22 2.8253619069e-22 1.3615134712e-02
1.225              -1.2866917379e-21 -1.4234174683e-21 2.4143823166e-01 -1.1241834325e-21 -1.2685909991e-21 2.2803996627e-01 -1.6250830547e-22 -1.5482646924e-22 1.3398265392e-02
1.23333            -2.0720433203e-22 -4.4341452874e-22 2.3713547087e-01 -1.5040618475e-22 -5.4019845767e-22 2.2389977698e-01 -5.6798147278e-23 9.6783928923e-23 1.3235693887e-02
1.24167            -5.2336162270e-22 -1.1638547505e-21 2.4153559116e-01 -8.9572038484e-22 -1.6802771826e-21 2.2843159970e-01 3.7235876214e-22 5.1642243216e-22 1.3103991462e-02
1.25               4.8855200357e-22 6.4381085784e-22 2.4084393580e-01 5.6871358655e-22 8.1931650993e-22 2.2787625250e-01 -8.0161582986e-23 -1.7550565209e-22 1.2967683304e-02
1.25833            8.9570417434e-22 8.3181056169e-22 2.2780408957e-01 9.1827415476e-22 8.8939774761e-22 2.1499312365e-01 -2.2569980422e-23 -5.7587185923e-23 1.2810965921e-02
1.26667            -1.3252996614e-22 -2.3357053570e-22 2.4782457220e-01 1.4794865659e-22 4.8112598285e-23 2.3514475746e-01 -2.8047862273e-22 -2.8168313398e-22 1.2679814741e-02
1.275              -1.9199848705e-22 -6.8551498621e-22 2.4320310415e-01 -4.0867915660e-22 -9.5824421340e-22 2.3067104374e-01 2.1668066955e-22 2.7272922719e-22 1.2532060411e-02
1.28333            -5.9731780254e-22 -9.5672909382e-22 2.4052532248e-01 -6.4526092479e-22 -1.1541945449e-21 2.2816192048e-01 4.7943122244e-23 1.9746545112e-22 1.2363402009e-02
1.29167            3.5651426259e-22 2.8781295130e-22 2.4266971498e-01 3.3806251643e-22 2.9332533904e-22 2.3048901007e-01 1.8451746162e-23 -5.5123877443e-24 1.2180704906e-02
1.3                -7.6105313846e-22 -5.4314316451e-22 2.3216857446e-01 -1.0157455880e-21 -8.5055644596e-22 2.2011894762e-01 2.5469244951e-22 3.0741328145e-22 1.2049626838e-02
1.30833            -1.8610400320e-22 -2.1941226368e-22 2.3627475695e-01 -3.4586996089e-22 -3.8761436697e-22 2.2434253940e-01 1.5976595769e-22 1.6820210329e-22 1.1932217548e-02
1.31667            -2.9462782751e-22 -2.7308392398e-22 2.2282762161e-01 -9.0705083028e-24 2.5414598075e-23 2.1101148890e-01 -2.8555731921e-22 -2.9849852206e-22 1.1816132713e-02
1.325              1.9022806647e-22 3.2061724968e-22 2.3040532390e-01 -6.4842352596e-25 2.0008974863e-22 2.1873601154e-01 1.9087648999e-22 1.2052750104e-22 1.1669312364e-02
1.33333            1.2028563964e-21 1.9418953555e-21 2.2697653092e-01 1.0716691786e-21 1.8407809961e-21 2.1546923344e-01 1.3118721777e-22 1.0111435940e-22 1.1507297476e-02
1.34167            5.4013811474e-22 3.4417930299e-22 2.3275173427e-01 6.8905343871e-22 3.8128778041e-22 2.2136739163e-01 -1.4891532397e-22 -3.7108477424e-23 1.1384342640e-02
1.35               -2.9873884379e-22 -5.8215018450e-23 2.2878838813e-01 -2.4329737867e-22 8.7886243275e-23 2.1753320508e-01 -5.5441465115e-23 -1.4610126172e-22 1.1255183047e-02
1.35833            1.0611854967e-22 -2.7400261482e-22 2.2980417559e-01 5.3361729758e-24 -5.2104859066e-22 2.1868274165e-01 1.0078237669e-22 2.4704597584e-22 1.1121433943e-02
1.36667            5.7115162936e-22 2.9522976093e-22 2.3429847731e-01 5.0725547625e-22 1.4793457414e-22 2.2332006269e-01 6.3896153116e-23 1.4729518680e-22 1.0978414617e-02
1.375              -3.9827137683e-22 -7.2356171764e-22 2.3628498265e-01 -3.0345381120e-22 -6.3113698108e-22 2.2543080756e-01 -9.4817565627e-23 -9.2424736555e-23 1.0854175091e-02
1.38333            -7.6099881902e-22 -1.0625911671e-21 2.3771585196e-01 -7.5915365505e-22 -1.0860269707e-21 2.2701983032e-01 -1.8451639646e-24 2.3435803612e-23 1.0696021642e-02
1.39167            -2.7488390917e-23 -6.7788473996e-23 2.3510168246e-01 1.0933225110e-22 1.2121031318e-22 2.2454620686e-01 -1.3682064201e-22 -1.8899878718e-22 1.0555475600e-02
1.4                6.4177886773e-23 1.0985587911e-22 2.3391117154e-01 1.7172124115e-22 1.6541997756e-22 2.2349656974e-01 -1.0754335438e-22 -5.5564098444e-23 1.0414601799e-02
