# Field minima and maxima
# Time            	field             	min               	location(min)     	processor         	max               	location(max)     	processor         
0.609524          	nut               	0.0000000000e+00	(1.1790291835e-01 -3.7334381155e-01 0.0000000000e+00)	0	9.4223484993e-04	(8.5000000000e-01 -7.5000000000e-01 0.0000000000e+00)	0
0.609524          	U                 	(5.9878312640e-01 -2.2255142981e-01 -1.1362117870e-23)	(1.0500000000e+00 -5.5000000000e-01 0.0000000000e+00)	0	(1.0979878092e+00 2.7399069874e-01 5.8064007777e-23)	(1.5913690039e-02 -2.8696351800e-01 0.0000000000e+00)	0
0.609524          	k                 	1.9659069096e-06	(9.7264089156e-01 -5.8378868997e-01 -1.3224424666e-17)	0	1.0000000000e-02	(1.5000000000e-01 -5.5000000000e-01 0.0000000000e+00)	0
0.609524          	p                 	-5.0430682311e-01	(1.6016693616e-01 -3.7477325790e-01 0.0000000000e+00)	0	5.4798548232e-01	(3.1166428563e-03 -4.0761685648e-01 -5.9158795799e-17)	0
0.609524          	omega             	6.3958427337e+00	(8.5000000000e-01 -7.5000000000e-01 0.0000000000e+00)	0	7.8141746609e+04	(9.7316333424e-01 -5.8798602582e-01 0.0000000000e+00)	0
0.619048          	nut               	0.0000000000e+00	(1.1816626547e-01 -3.7160385325e-01 0.0000000000e+00)	0	9.5427881201e-04	(8.5000000000e-01 -7.5000000000e-01 0.0000000000e+00)	0
0.619048          	U                 	(9.0013012733e-01 -2.7549342615e-01 -3.4341240801e-23)	(9.5000000000e-01 -4.5000000000e-01 0.0000000000e+00)	0	(1.1514445994e+00 3.4951082186e-01 5.5259130372e-23)	(3.6036727013e-02 -3.1450038756e-01 3.0473800548e-17)	0
0.619048          	k                 	1.8626661895e-06	(9.7229014894e-01 -5.8452741088e-01 3.8544633797e-17)	0	1.0000000000e-02	(5.0000000000e-02 -4.5000000000e-01 0.0000000000e+00)	0
0.619048          	p                 	-5.3463568270e-01	(1.6042595867e-01 -3.7315590002e-01 0.0000000000e+00)	0	5.2189448852e-01	(3.2810480833e-03 -4.0554376303e-01 0.0000000000e+00)	0
0.619048          	omega             	6.2831538978e+00	(8.5000000000e-01 -7.5000000000e-01 0.0000000000e+00)	0	7.8141746588e+04	(9.7280041310e-01 -5.8872624466e-01 0.0000000000e+00)	0
0.628571          	nut               	0.0000000000e+00	(1.1843080962e-01 -3.6984918941e-01 0.0000000000e+00)	0	9.6671975392e-04	(8.5000000000e-01 -7.5000000000e-01 0.0000000000e+00)	0
0.628571          	U                 	(8.9856769053e-01 -2.7580798579e-01 -1.3137455138e-22)	(9.5000000000e-01 -4.5000000000e-01 0.0000000000e+00)	0	(1.1571699900e+00 2.8246209753e-01 1.0430214585e-22)	(4.1436694308e-02 -2.8791502095e-01 -2.3164842923e-17)	0
0.628571          	k                 	1.7721016712e-06	(9.7193479112e-01 -5.8524418304e-01 -5.0640418263e-17)	0	1.0000000000e-02	(5.0000000000e-02 -4.5000000000e-01 0.0000000000e+00)	0
0.628571          	p                 	-6.2364186591e-01	(1.6068583326e-01 -3.7152355365e-01 0.0000000000e+00)	0	4.3353311440e-01	(3.4478318109e-03 -4.0345641282e-01 0.0000000000e+00)	0
0.628571          	omega             	6.1711788244e+00	(8.5000000000e-01 -7.5000000000e-01 0.0000000000e+00)	0	7.8141746565e+04	(9.7243289928e-01 -5.8944447623e-01 0.0000000000e+00)	0
0.638095          	nut               	0.0000000000e+00	(1.1869650757e-01 -3.6808001472e-01 0.0000000000e+00)	0	9.7965303632e-04	(8.5000000000e-01 -7.5000000000e-01 0.0000000000e+00)	0
0.638095          	U                 	(6.9102610749e-01 -1.9567370670e-01 -1.8097334861e-23)	(3.8754931686e-02 -4.5654218082e-01 -2.2371355120e-17)	0	(1.0069965282e+00 1.6557184754e-01 2.3642387945e-22)	(-9.0185818956e-02 -2.4570406545e-01 0.0000000000e+00)	0
0.638095          	k                 	1.6921809564e-06	(9.7157489647e-01 -5.8593892193e-01 0.0000000000e+00)	0	1.0000000000e-02	(5.0000000000e-02 -4.5000000000e-01 0.0000000000e+00)	0
0.638095          	p                 	-5.4226896191e-01	(1.6094651965e-01 -3.6987639915e-01 0.0000000000e+00)	0	5.1805006980e-01	(3.6169558103e-03 -4.0135504166e-01 -2.5794334320e-17)	0
0.638095          	omega             	6.0592845185e+00	(8.5000000000e-01 -7.5000000000e-01 0.0000000000e+00)	0	7.8141746548e+04	(9.7206087264e-01 -5.9014063608e-01 0.0000000000e+00)	0
0.647619          	nut               	0.0000000000e+00	(1.1896331536e-01 -3.6629652346e-01 0.0000000000e+00)	0	8.8476255324e-04	(1.5500000000e+00 -5.5000000000e-01 -2.3226019873e-17)	1
0.647619          	U                 	(7.9662611108e-01 -1.6753335398e-01 -6.6517386484e-23)	(2.5923791097e-02 -4.8440644207e-01 -2.9871758438e-17)	0	(1.2070406867e+00 4.3907017735e-01 2.5106295978e-23)	(4.9302347048e-02 -3.4340825911e-01 -1.4164537791e-17)	0
0.647619          	k                 	1.6150735353e-06	(9.7121054567e-01 -5.8661154370e-01 0.0000000000e+00)	0	1.0000000000e-02	(5.0000000000e-02 -4.5000000000e-01 0.0000000000e+00)	0
0.647619          	p                 	-5.8338236579e-01	(1.6120797701e-01 -3.6821461650e-01 0.0000000000e+00)	0	4.8204820196e-01	(3.7883806965e-03 -3.9923988507e-01 0.0000000000e+00)	0
0.647619          	omega             	6.8888550402e+00	(1.5500000000e+00 -5.5000000000e-01 -2.3226019873e-17)	1	7.8141746533e+04	(9.7168441531e-01 -5.9081464043e-01 0.0000000000e+00)	0
0.657143          	nut               	0.0000000000e+00	(1.1923118833e-01 -3.6449890952e-01 0.0000000000e+00)	0	8.7899461466e-04	(1.5500000000e+00 -5.5000000000e-01 -2.3226019873e-17)	1
0.657143          	U                 	(9.2875690898e-01 -2.7962894362e-01 -1.7051035854e-23)	(8.5000000000e-01 -4.5000000000e-01 0.0000000000e+00)	0	(1.0380358206e+00 2.0700626076e-01 3.0222443074e-22)	(-4.0036336926e-02 -2.5135532716e-01 2.3229343597e-17)	0
0.657143          	k                 	1.5390993279e-06	(9.7084182164e-01 -5.8726196516e-01 0.0000000000e+00)	0	1.0000000000e-02	(5.0000000000e-02 -4.5000000000e-01 0.0000000000e+00)	0
0.657143          	p                 	-6.6630709747e-01	(1.6147016390e-01 -3.6653838529e-01 0.0000000000e+00)	0	3.9806300870e-01	(3.9620659369e-03 -3.9711117825e-01 0.0000000000e+00)	0
0.657143          	omega             	6.8811390766e+00	(1.5500000000e+00 -5.5000000000e-01 -2.3226019873e-17)	1	7.8141746516e+04	(9.7130361165e-01 -5.9146640621e-01 0.0000000000e+00)	0
0.666667          	nut               	0.0000000000e+00	(1.1950008108e-01 -3.6268736637e-01 0.0000000000e+00)	0	8.7265330254e-04	(1.5500000000e+00 -5.5000000000e-01 -2.3226019873e-17)	1
0.666667          	U                 	(3.3432364460e-01 -1.9273238087e-01 -5.5085680068e-23)	(1.0294117202e+00 -5.6976223350e-01 0.0000000000e+00)	0	(1.0908233455e+00 3.3967892306e-01 1.1708680827e-22)	(1.3771942794e-02 -2.9904817302e-01 -2.3943113512e-17)	0
0.666667          	k                 	1.4684508078e-06	(9.7046880951e-01 -5.8789010382e-01 -2.7577489531e-17)	0	1.0000000000e-02	(5.0000000000e-02 -4.5000000000e-01 0.0000000000e+00)	0
0.666667          	p                 	-6.6790705617e-01	(1.6173303834e-01 -3.6484788475e-01 0.0000000000e+00)	0	3.9932550820e-01	(4.1379698610e-03 -3.9496915604e-01 0.0000000000e+00)	0
0.666667          	omega             	6.8736285046e+00	(1.5500000000e+00 -5.5000000000e-01 -2.3226019873e-17)	1	7.8141746500e+04	(9.7091854829e-01 -5.9209585103e-01 0.0000000000e+00)	0
0.67619           	nut               	0.0000000000e+00	(1.1976994751e-01 -3.6086208708e-01 0.0000000000e+00)	0	8.6569907827e-04	(1.5500000000e+00 -5.5000000000e-01 -2.3226019873e-17)	1
0.67619           	U                 	(7.8956853906e-01 -1.4798268587e-01 -1.1027601995e-22)	(1.2310121909e+00 -5.2506797216e-01 0.0000000000e+00)	0	(1.0534918314e+00 4.1587702470e-01 1.6448654195e-22)	(8.9630657093e-03 -3.2147613213e-01 1.4358498675e-17)	0
0.67619           	k                 	1.3838712818e-06	(9.7009159665e-01 -5.8849587787e-01 2.7577489531e-17)	0	1.0000000000e-02	(5.0000000000e-02 -4.5000000000e-01 0.0000000000e+00)	0
0.67619           	p                 	-4.4589895826e-01	(1.6199655778e-01 -3.6314329368e-01 0.0000000000e+00)	0	6.2891099228e-01	(4.3160496702e-03 -3.9281405297e-01 0.0000000000e+00)	0
0.67619           	omega             	6.8663780504e+00	(1.5500000000e+00 -5.5000000000e-01 -2.3226019873e-17)	1	7.8141746485e+04	(9.7052931405e-01 -5.9270289321e-01 0.0000000000e+00)	0
0.685714          	nut               	0.0000000000e+00	(1.2004074081e-01 -3.5902326431e-01 0.0000000000e+00)	0	8.5814503192e-04	(1.5500000000e+00 -5.5000000000e-01 -2.3226019873e-17)	1
0.685714          	U                 	(5.6963765331e-01 -2.1668349661e-01 -2.3617035472e-23)	(1.0830254019e+00 -5.5760878622e-01 0.0000000000e+00)	0	(1.1178064455e+00 2.7805556707e-01 9.3214570136e-23)	(2.0066049113e-02 -2.7031915604e-01 0.0000000000e+00)	0
0.685714          	k                 	1.3126108142e-06	(9.6971027262e-01 -5.8907920625e-01 0.0000000000e+00)	0	1.0000000000e-02	(5.0000000000e-02 -4.5000000000e-01 0.0000000000e+00)	0
0.685714          	p                 	-6.3684159560e-01	(1.6226067911e-01 -3.6142479054e-01 0.0000000000e+00)	0	4.4413543799e-01	(4.4962614479e-03 -3.9064610321e-01 -1.8224207162e-17)	0
0.685714          	omega             	6.7746657396e+00	(7.5000000000e-01 -7.5000000000e-01 0.0000000000e+00)	0	7.8141746462e+04	(9.7013599993e-01 -5.9328745183e-01 0.0000000000e+00)	0
0.695238          	nut               	0.0000000000e+00	(1.2031241348e-01 -3.5717109030e-01 0.0000000000e+00)	0	8.5303344999e-04	(7.5000000000e-01 -7.5000000000e-01 0.0000000000e+00)	0
0.695238          	U                 	(6.6929217246e-01 -1.7661880895e-01 -7.9459843191e-23)	(1.1708420015e+00 -5.6549823311e-01 1.5997716275e-17)	0	(1.1445882114e+00 5.3395898483e-01 1.3827384720e-22)	(3.6053040367e-02 -3.4240044913e-01 -2.3543664767e-17)	0
0.695238          	k                 	1.2503239317e-06	(9.6932492914e-01 -5.8964000857e-01 -2.6448849331e-17)	0	1.0000000000e-02	(5.0000000000e-02 -4.5000000000e-01 0.0000000000e+00)	0
0.695238          	p                 	-6.5077741864e-01	(1.6252535868e-01 -3.5969255336e-01 0.0000000000e+00)	0	4.3140922569e-01	(4.6785601698e-03 -3.8846554057e-01 1.8224207162e-17)	0
0.695238          	omega             	6.6787441432e+00	(7.5000000000e-01 -7.5000000000e-01 0.0000000000e+00)	0	7.8141746447e+04	(9.6973869914e-01 -5.9384944666e-01 0.0000000000e+00)	0
0.704762          	nut               	0.0000000000e+00	(1.2058493600e-01 -3.5530562964e-01 0.0000000000e+00)	0	8.6072312089e-04	(7.5000000000e-01 -7.5000000000e-01 0.0000000000e+00)	0
0.704762          	U                 	(9.1650437376e-01 -2.7962615119e-01 -5.8080080020e-23)	(8.5000000000e-01 -4.5000000000e-01 0.0000000000e+00)	0	(1.1296070877e+00 5.8034208781e-01 1.3221135715e-22)	(2.4305337962e-02 -3.3757428063e-01 0.0000000000e+00)	0
0.704762          	k                 	1.1926665534e-06	(9.6893563336e-01 -5.9017824194e-01 1.2095784466e-17)	0	1.0000000000e-02	(5.0000000000e-02 -4.5000000000e-01 0.0000000000e+00)	0
0.704762          	p                 	-6.1922561171e-01	(1.6279057045e-01 -3.5794664074e-01 0.0000000000e+00)	0	4.6528070669e-01	(4.8629123827e-03 -3.8627244896e-01 -5.3130645064e-17)	0
0.704762          	omega             	6.5855204858e+00	(7.5000000000e-01 -7.5000000000e-01 0.0000000000e+00)	0	7.8141746435e+04	(9.6933747947e-01 -5.9438883505e-01 0.0000000000e+00)	0
0.714286          	nut               	0.0000000000e+00	(1.2085841451e-01 -3.5342603635e-01 0.0000000000e+00)	0	8.6842478643e-04	(7.5000000000e-01 -7.5000000000e-01 0.0000000000e+00)	0
0.714286          	U                 	(7.7646886542e-01 -1.5565288716e-01 -6.6495264764e-23)	(2.5481854871e-02 -4.6965691788e-01 7.1434973476e-18)	0	(1.1847699192e+00 3.5222080993e-01 2.6177179038e-22)	(4.0395890909e-02 -2.9399667342e-01 0.0000000000e+00)	0
0.714286          	k                 	1.1383450010e-06	(9.6854225704e-01 -5.9069413962e-01 1.2095784466e-17)	0	1.0000000000e-02	(5.0000000000e-02 -4.5000000000e-01 0.0000000000e+00)	0
0.714286          	p                 	-6.1952930577e-01	(8.1054769093e-02 -3.5090806435e-01 0.0000000000e+00)	0	4.6686243277e-01	(5.0493772631e-03 -3.8406583959e-01 0.0000000000e+00)	0
0.714286          	omega             	6.4942530279e+00	(7.5000000000e-01 -7.5000000000e-01 0.0000000000e+00)	0	7.8141746423e+04	(9.6893220742e-01 -5.9490585106e-01 0.0000000000e+00)	0
0.72381           	nut               	0.0000000000e+00	(1.2113283940e-01 -3.5153228408e-01 0.0000000000e+00)	0	8.7613188734e-04	(7.5000000000e-01 -7.5000000000e-01 0.0000000000e+00)	0
0.72381           	U                 	(3.0070574936e-01 -1.7733800304e-01 -3.1364389988e-23)	(1.0273877814e+00 -5.7406581358e-01 0.0000000000e+00)	0	(1.1881923655e+00 3.5254245916e-01 1.6636437280e-22)	(4.0838072242e-02 -2.9187646083e-01 0.0000000000e+00)	0
0.72381           	k                 	1.0834334679e-06	(9.6814483520e-01 -5.9118772152e-01 3.9673273997e-17)	0	1.0000000000e-02	(5.0000000000e-02 -4.5000000000e-01 0.0000000000e+00)	0
0.72381           	p                 	-6.6221418064e-01	(8.1336446136e-02 -3.4890217875e-01 0.0000000000e+00)	0	4.3066066655e-01	(5.2379368030e-03 -3.8184568377e-01 0.0000000000e+00)	0
0.72381           	omega             	6.4049358025e+00	(7.5000000000e-01 -7.5000000000e-01 0.0000000000e+00)	0	7.8141746412e+04	(9.6852291790e-01 -5.9540051489e-01 0.0000000000e+00)	0
0.733333          	nut               	0.0000000000e+00	(1.2140816709e-01 -3.4962457709e-01 0.0000000000e+00)	0	8.8383984449e-04	(7.5000000000e-01 -7.5000000000e-01 0.0000000000e+00)	0
0.733333          	U                 	(8.7851066614e-01 -2.7701076279e-01 -1.1078233462e-23)	(9.5000000000e-01 -4.5000000000e-01 0.0000000000e+00)	0	(1.0751039294e+00 4.2360738384e-01 2.0934306188e-22)	(1.1285786828e-02 -3.0836345899e-01 0.0000000000e+00)	0
0.733333          	k                 	1.0309259899e-06	(9.6774345240e-01 -5.9165894358e-01 -2.6448849331e-17)	0	1.0000000000e-02	(5.0000000000e-02 -4.5000000000e-01 0.0000000000e+00)	0
0.733333          	p                 	-6.4415137348e-01	(8.1619320795e-02 -3.4688266502e-01 0.0000000000e+00)	0	4.5233657269e-01	(5.4285494903e-03 -3.7961222374e-01 0.0000000000e+00)	0
0.733333          	omega             	6.3175462176e+00	(7.5000000000e-01 -7.5000000000e-01 0.0000000000e+00)	0	7.8141746399e+04	(9.6810969680e-01 -5.9587278264e-01 0.0000000000e+00)	0
0.742857          	nut               	0.0000000000e+00	(1.2168435334e-01 -3.4770311925e-01 0.0000000000e+00)	0	8.9154284132e-04	(7.5000000000e-01 -7.5000000000e-01 0.0000000000e+00)	0
0.742857          	U                 	(8.7662138590e-01 -2.7707464867e-01 -5.9368975269e-23)	(9.5000000000e-01 -4.5000000000e-01 0.0000000000e+00)	0	(1.0539259164e+00 2.1421344210e-01 1.7175331119e-22)	(-3.4646503780e-02 -2.3053538502e-01 3.0454489887e-17)	0
0.742857          	k                 	9.8673589385e-07	(9.6733819511e-01 -5.9210776242e-01 0.0000000000e+00)	0	1.0000000000e-02	(5.0000000000e-02 -4.5000000000e-01 0.0000000000e+00)	0
0.742857          	p                 	-6.4547665696e-01	(8.1903345384e-02 -3.4484973923e-01 0.0000000000e+00)	0	4.5102956991e-01	(1.0017533774e-02 -3.8477545636e-01 -1.1418646979e-17)	0
0.742857          	omega             	6.2320697540e+00	(7.5000000000e-01 -7.5000000000e-01 0.0000000000e+00)	0	7.8141746387e+04	(9.6769263192e-01 -5.9632261107e-01 0.0000000000e+00)	0
0.752381          	nut               	0.0000000000e+00	(1.2196135331e-01 -3.4576811405e-01 0.0000000000e+00)	0	8.9923391200e-04	(7.5000000000e-01 -7.5000000000e-01 0.0000000000e+00)	0
0.752381          	U                 	(5.4849440081e-01 -2.0836689623e-01 -8.4129377399e-24)	(1.0500000000e+00 -5.5000000000e-01 0.0000000000e+00)	0	(1.0238717327e+00 6.4090516940e-01 1.2226865338e-22)	(2.3088547493e-02 -3.3904401016e-01 3.0969962670e-17)	0
0.752381          	k                 	9.4828896097e-07	(9.6692915177e-01 -5.9253413538e-01 0.0000000000e+00)	0	1.0000000000e-02	(5.0000000000e-02 -4.5000000000e-01 0.0000000000e+00)	0
0.752381          	p                 	-5.8487921941e-01	(8.2188471482e-02 -3.4280361702e-01 0.0000000000e+00)	0	5.1546032514e-01	(1.0191407972e-02 -3.8252836554e-01 0.0000000000e+00)	0
0.752381          	omega             	6.1484963313e+00	(7.5000000000e-01 -7.5000000000e-01 0.0000000000e+00)	0	7.8141746379e+04	(9.6727181302e-01 -5.9674995770e-01 0.0000000000e+00)	0
0.761905          	nut               	0.0000000000e+00	(1.2223912156e-01 -3.4381976458e-01 0.0000000000e+00)	0	9.0704342498e-04	(7.5000000000e-01 -7.5000000000e-01 0.0000000000e+00)	0
0.761905          	U                 	(5.4506340587e-01 -2.0724737186e-01 -7.6131292551e-24)	(1.0500000000e+00 -5.5000000000e-01 0.0000000000e+00)	0	(1.0092521962e+00 1.4363435419e-01 2.9095601663e-22)	(-1.3055078296e-01 -2.0189483289e-01 5.5219993213e-17)	0
0.761905          	k                 	9.1236472889e-07	(9.6651641268e-01 -5.9293802044e-01 -1.3224424666e-17)	0	1.0000000000e-02	(5.0000000000e-02 -4.5000000000e-01 0.0000000000e+00)	0
0.761905          	p                 	-5.7650325385e-01	(8.2474649942e-02 -3.4074451363e-01 0.0000000000e+00)	0	5.3440722175e-01	(1.0367234271e-02 -3.8026860002e-01 1.1418646979e-17)	0
0.761905          	omega             	6.0659415790e+00	(7.5000000000e-01 -7.5000000000e-01 0.0000000000e+00)	0	7.8141746372e+04	(9.6684733176e-01 -5.9715478071e-01 0.0000000000e+00)	0
0.771429          	nut               	0.0000000000e+00	(1.2251761205e-01 -3.4185827356e-01 0.0000000000e+00)	0	9.1469775081e-04	(7.5000000000e-01 -7.5000000000e-01 0.0000000000e+00)	0
0.771429          	U                 	(5.2189841591e-01 -2.0789811518e-01 -3.8847907695e-23)	(1.0801745246e+00 -5.6472349041e-01 3.0445831625e-17)	0	(1.0101749212e+00 1.4432299936e-01 2.4488062985e-22)	(-1.2987731911e-01 -1.9923211612e-01 -7.2277253786e-18)	0
0.771429          	k                 	8.8105832611e-07	(9.6610007009e-01 -5.9331937633e-01 -2.6448849331e-17)	0	1.0000000000e-02	(5.0000000000e-02 -4.5000000000e-01 0.0000000000e+00)	0
0.771429          	p                 	-5.5298047387e-01	(8.2761830899e-02 -3.3867264391e-01 0.0000000000e+00)	0	5.6035425839e-01	(1.0544969865e-02 -3.7799639985e-01 -2.2837293958e-17)	0
0.771429          	omega             	5.9861133624e+00	(7.5000000000e-01 -7.5000000000e-01 0.0000000000e+00)	0	7.8141746365e+04	(9.6641928170e-01 -5.9753703902e-01 0.0000000000e+00)	0
0.780952          	nut               	0.0000000000e+00	(1.2279677815e-01 -3.3988384332e-01 0.0000000000e+00)	0	9.2231889936e-04	(7.5000000000e-01 -7.5000000000e-01 0.0000000000e+00)	0
0.780952          	U                 	(6.3949843484e-01 -1.4884818232e-01 -5.6777506164e-23)	(1.4702243468e-02 -4.1929843900e-01 0.0000000000e+00)	0	(1.2882886119e+00 3.1768539547e-01 8.2444511677e-23)	(6.7735932532e-02 -2.8513120052e-01 1.5584763742e-17)	0
0.780952          	k                 	8.4695482140e-07	(9.6568021807e-01 -5.9367816247e-01 -3.8544633797e-17)	0	1.0000000000e-02	(5.0000000000e-02 -4.5000000000e-01 0.0000000000e+00)	0
0.780952          	p                 	-6.5656410021e-01	(8.3049963779e-02 -3.3658822225e-01 0.0000000000e+00)	0	4.6617535937e-01	(1.0724571003e-02 -3.7571200477e-01 0.0000000000e+00)	0
0.780952          	omega             	5.9081518400e+00	(7.5000000000e-01 -7.5000000000e-01 0.0000000000e+00)	0	7.8141746360e+04	(9.6598775825e-01 -5.9789669227e-01 0.0000000000e+00)	0
0.790476          	nut               	0.0000000000e+00	(1.2307657266e-01 -3.3789667578e-01 0.0000000000e+00)	0	9.2992737898e-04	(7.5000000000e-01 -7.5000000000e-01 0.0000000000e+00)	0
0.790476          	U                 	(5.2948554162e-01 -2.1180868262e-01 -3.6109183868e-23)	(1.0310110126e+00 -5.5377598419e-01 2.2414761618e-17)	0	(1.0173053170e+00 3.6101492799e-01 1.8276667217e-22)	(-1.0602034589e-02 -2.8852027516e-01 5.2183463799e-17)	0
0.790476          	k                 	8.1215678141e-07	(9.6525695256e-01 -5.9401433902e-01 -1.1286401998e-18)	0	1.0000000000e-02	(5.0000000000e-02 -4.5000000000e-01 0.0000000000e+00)	0
0.790476          	p                 	-6.7458869561e-01	(8.3338997309e-02 -3.3449146267e-01 0.0000000000e+00)	0	4.5414595892e-01	(1.0905993001e-02 -3.7341565420e-01 -2.2837293958e-17)	0
0.790476          	omega             	5.8321370081e+00	(7.5000000000e-01 -7.5000000000e-01 0.0000000000e+00)	0	7.8141746351e+04	(9.6555285869e-01 -5.9823370084e-01 0.0000000000e+00)	0
0.8               	nut               	0.0000000000e+00	(1.2335694778e-01 -3.3589697249e-01 0.0000000000e+00)	0	9.3699331624e-04	(7.5000000000e-01 -7.5000000000e-01 0.0000000000e+00)	0
0.8               	U                 	(8.6177482424e-01 -2.7877296153e-01 -1.2604134014e-22)	(9.8575348939e-01 -4.7816083202e-01 0.0000000000e+00)	0	(1.0978058906e+00 4.3014206915e-01 2.0481369210e-22)	(1.4056952956e-02 -2.9250423540e-01 2.2187327042e-17)	0
0.8               	k                 	7.7565973764e-07	(9.6483037134e-01 -5.9432786684e-01 0.0000000000e+00)	0	1.0000000000e-02	(5.0000000000e-02 -4.5000000000e-01 0.0000000000e+00)	0
0.8               	p                 	-6.7741295987e-01	(8.3628879522e-02 -3.3238257874e-01 0.0000000000e+00)	0	4.5981636915e-01	(1.1089190250e-02 -3.7110758719e-01 0.0000000000e+00)	0
0.8               	omega             	5.7609337855e+00	(7.5000000000e-01 -7.5000000000e-01 0.0000000000e+00)	0	7.8141746343e+04	(9.6511468212e-01 -5.9854802584e-01 0.0000000000e+00)	0
0.809091          	nut               	0.0000000000e+00	(1.2362515572e-01 -3.3397608741e-01 0.0000000000e+00)	0	9.4329761832e-04	(7.5000000000e-01 -7.5000000000e-01 0.0000000000e+00)	0
0.809091          	U                 	(5.1982077848e-01 -2.0865425919e-01 -3.2881556480e-23)	(1.0303889395e+00 -5.5472087998e-01 7.2145911304e-18)	0	(1.2161848338e+00 3.5296293183e-01 1.4449213208e-22)	(4.4837653517e-02 -2.7234333332e-01 -1.6086030304e-17)	0
0.809091          	k                 	7.5123810396e-07	(9.6442005598e-01 -5.9460606540e-01 0.0000000000e+00)	0	1.0000000000e-02	(5.0000000000e-02 -4.5000000000e-01 0.0000000000e+00)	0
0.809091          	p                 	-9.7063875561e-01	(8.3906411348e-02 -3.3035783973e-01 0.0000000000e+00)	0	1.7132937049e-01	(1.1265726463e-02 -3.6889306645e-01 0.0000000000e+00)	0
0.809091          	omega             	5.6968139883e+00	(7.5000000000e-01 -7.5000000000e-01 0.0000000000e+00)	0	7.8141746334e+04	(9.6469333250e-01 -5.9882695329e-01 0.0000000000e+00)	0
0.818182          	nut               	0.0000000000e+00	(1.2389399896e-01 -3.3204278822e-01 0.0000000000e+00)	0	9.4914351912e-04	(7.5000000000e-01 -7.5000000000e-01 0.0000000000e+00)	0
0.818182          	U                 	(8.3976420541e-01 -6.5518324237e-02 -9.9136368541e-23)	(-9.4847451182e-03 -5.2702968980e-01 -3.0315402046e-17)	0	(1.1032308287e+00 2.6390853609e-01 1.7706953600e-22)	(3.2542724962e-03 -2.3314364037e-01 0.0000000000e+00)	0
0.818182          	k                 	7.2790186731e-07	(9.6400659970e-01 -5.9486376872e-01 -3.8544633797e-17)	0	1.0000000000e-02	(5.0000000000e-02 -4.5000000000e-01 0.0000000000e+00)	0
0.818182          	p                 	-7.8632162734e-01	(8.4184822041e-02 -3.2832100909e-01 0.0000000000e+00)	0	3.5368055230e-01	(1.1443925597e-02 -3.6666673615e-01 -9.6831815968e-19)	0
0.818182          	omega             	5.6364484323e+00	(7.5000000000e-01 -7.5000000000e-01 0.0000000000e+00)	0	7.8141746332e+04	(9.6426887176e-01 -5.9908535468e-01 0.0000000000e+00)	0
0.827273          	nut               	0.0000000000e+00	(1.2416343741e-01 -3.3009726249e-01 0.0000000000e+00)	0	9.5452794422e-04	(7.5000000000e-01 -7.5000000000e-01 0.0000000000e+00)	0
0.827273          	U                 	(5.1005510675e-01 -2.0537021809e-01 -3.5766346650e-23)	(1.0297657180e+00 -5.5555974801e-01 2.2414761618e-17)	0	(1.2006018614e+00 5.9307843773e-01 6.7781129996e-23)	(2.8578087647e-02 -3.0894064065e-01 -4.5480517416e-17)	0
0.827273          	k                 	7.0105156453e-07	(9.6359008303e-01 -5.9510095365e-01 2.5320209131e-17)	0	1.0000000000e-02	(5.0000000000e-02 -4.5000000000e-01 0.0000000000e+00)	0
0.827273          	p                 	-7.4435609903e-01	(8.4464068176e-02 -3.2627228489e-01 0.0000000000e+00)	0	4.0570646550e-01	(1.1623750241e-02 -3.6442881621e-01 0.0000000000e+00)	0
0.827273          	omega             	5.5796774673e+00	(7.5000000000e-01 -7.5000000000e-01 0.0000000000e+00)	0	7.8141746327e+04	(9.6384138158e-01 -5.9932320704e-01 0.0000000000e+00)	0
0.836364          	nut               	0.0000000000e+00	(1.2443342977e-01 -3.2813970282e-01 0.0000000000e+00)	0	9.5944850857e-04	(7.5000000000e-01 -7.5000000000e-01 0.0000000000e+00)	0
0.836364          	U                 	(5.0311664444e-01 -1.9797339973e-01 -4.7390148836e-23)	(9.0858452428e-01 -5.2383399112e-01 6.6854090896e-17)	0	(1.0133235148e+00 2.4660649353e-01 1.0970836225e-22)	(-5.0471288748e-02 -2.3976222834e-01 0.0000000000e+00)	0
0.836364          	k                 	6.6904332497e-07	(9.6317058923e-01 -5.9531759687e-01 0.0000000000e+00)	0	1.0000000000e-02	(5.0000000000e-02 -4.5000000000e-01 0.0000000000e+00)	0
0.836364          	p                 	-7.2993315035e-01	(8.4744104960e-02 -3.2421187047e-01 0.0000000000e+00)	0	4.3542194976e-01	(1.1805161706e-02 -3.6217953245e-01 1.1418646979e-17)	0
0.836364          	omega             	5.5263519172e+00	(7.5000000000e-01 -7.5000000000e-01 0.0000000000e+00)	0	7.8141746320e+04	(9.6341094637e-01 -5.9954048724e-01 0.0000000000e+00)	0
0.845455          	nut               	0.0000000000e+00	(1.2470393425e-01 -3.2617030146e-01 0.0000000000e+00)	0	9.6390624425e-04	(7.5000000000e-01 -7.5000000000e-01 0.0000000000e+00)	0
0.845455          	U                 	(8.5577057388e-01 -2.7601409709e-01 -3.4384446782e-23)	(9.5000000000e-01 -4.5000000000e-01 0.0000000000e+00)	0	(1.0720884106e+00 2.2119743750e-01 3.2189801928e-22)	(-2.8088155469e-02 -2.0442387585e-01 -5.3683833484e-17)	0
0.845455          	k                 	6.3747786754e-07	(9.6274820306e-01 -5.9551367567e-01 0.0000000000e+00)	0	1.0000000000e-02	(5.0000000000e-02 -4.5000000000e-01 0.0000000000e+00)	0
0.845455          	p                 	-7.1912305184e-01	(8.5024887015e-02 -3.2213996879e-01 0.0000000000e+00)	0	4.4689679308e-01	(1.1988120516e-02 -3.5991911037e-01 -2.3805612117e-17)	0
0.845455          	omega             	5.4763190985e+00	(7.5000000000e-01 -7.5000000000e-01 0.0000000000e+00)	0	7.8141746310e+04	(9.6297765212e-01 -5.9973717277e-01 0.0000000000e+00)	0
0.854545          	nut               	0.0000000000e+00	(1.2497490856e-01 -3.2418925035e-01 0.0000000000e+00)	0	9.6794248902e-04	(7.5000000000e-01 -7.5000000000e-01 0.0000000000e+00)	0
0.854545          	U                 	(8.5215547210e-01 -2.7978333179e-01 -1.1304562675e-22)	(9.8505212095e-01 -4.7986195007e-01 -1.5844269674e-17)	0	(1.1164007985e+00 4.3554700459e-01 1.9451030991e-22)	(1.6363713074e-02 -2.7910015282e-01 -2.2187327042e-17)	0
0.854545          	k                 	6.1390925847e-07	(9.6232301088e-01 -5.9568916796e-01 0.0000000000e+00)	0	1.0000000000e-02	(5.0000000000e-02 -4.5000000000e-01 0.0000000000e+00)	0
0.854545          	p                 	-5.8305357921e-01	(8.5306368378e-02 -3.2005678249e-01 0.0000000000e+00)	0	5.7973740990e-01	(1.2172586416e-02 -3.5764777523e-01 0.0000000000e+00)	0
0.854545          	omega             	5.4292108076e+00	(7.5000000000e-01 -7.5000000000e-01 0.0000000000e+00)	0	7.8141746302e+04	(9.6254158633e-01 -5.9991324175e-01 0.0000000000e+00)	0
0.863636          	nut               	0.0000000000e+00	(1.2524630995e-01 -3.2219674106e-01 0.0000000000e+00)	0	9.7155230120e-04	(7.5000000000e-01 -7.5000000000e-01 0.0000000000e+00)	0
0.863636          	U                 	(8.5029303650e-01 -2.7973415771e-01 -1.1895388170e-22)	(9.8492130029e-01 -4.8007552903e-01 -7.2143071309e-18)	0	(1.0379930249e+00 1.8501915723e-01 2.4680519342e-22)	(-7.5108074914e-02 -1.8630774313e-01 9.5402788200e-18)	0
0.863636          	k                 	5.8979785653e-07	(9.6189510053e-01 -5.9584405227e-01 5.0640418263e-17)	0	1.0000000000e-02	(5.0000000000e-02 -4.5000000000e-01 0.0000000000e+00)	0
0.863636          	p                 	-7.6027340834e-01	(8.5588502512e-02 -3.1796251382e-01 0.0000000000e+00)	0	4.1348750471e-01	(1.2358518383e-02 -3.5536575196e-01 -5.5156598574e-17)	0
0.863636          	omega             	5.3849394474e+00	(7.5000000000e-01 -7.5000000000e-01 0.0000000000e+00)	0	7.8141746299e+04	(9.6210283805e-01 -6.0006867293e-01 0.0000000000e+00)	0
0.872727          	nut               	0.0000000000e+00	(1.2551809518e-01 -3.2019296488e-01 0.0000000000e+00)	0	9.7473265565e-04	(7.5000000000e-01 -7.5000000000e-01 0.0000000000e+00)	0
0.872727          	U                 	(6.1599647126e-01 -2.1464705692e-01 -1.3203242805e-23)	(1.0500000000e+00 -5.5000000000e-01 0.0000000000e+00)	0	(1.0765584969e+00 2.2299026323e-01 1.9994754431e-22)	(-2.6332456741e-02 -1.9727419206e-01 -3.0454489887e-17)	0
0.872727          	k                 	5.4462674772e-07	(9.1553908034e-01 -5.7981203036e-01 0.0000000000e+00)	0	1.0000000000e-02	(5.0000000000e-02 -4.5000000000e-01 0.0000000000e+00)	0
0.872727          	p                 	-5.5830505852e-01	(8.5871242316e-02 -3.1585736471e-01 0.0000000000e+00)	0	6.2119489255e-01	(1.2545874631e-02 -3.5307326525e-01 -1.0450328819e-17)	0
0.872727          	omega             	5.3434108118e+00	(7.5000000000e-01 -7.5000000000e-01 0.0000000000e+00)	0	7.8141746293e+04	(9.6166149781e-01 -6.0020344572e-01 0.0000000000e+00)	0
0.881818          	nut               	0.0000000000e+00	(1.2579022057e-01 -3.1817811271e-01 0.0000000000e+00)	0	9.7748574907e-04	(7.5000000000e-01 -7.5000000000e-01 0.0000000000e+00)	0
0.881818          	U                 	(8.6219467620e-01 -2.7304545980e-01 -6.3277305862e-23)	(8.5000000000e-01 -4.5000000000e-01 0.0000000000e+00)	0	(1.2905461049e+00 4.2235571639e-01 1.3943184829e-22)	(5.7852045389e-02 -2.9059319828e-01 3.6176187185e-17)	0
0.881818          	k                 	4.7416923706e-07	(9.1514733156e-01 -5.7980870624e-01 0.0000000000e+00)	0	1.0000000000e-02	(5.0000000000e-02 -4.5000000000e-01 0.0000000000e+00)	0
0.881818          	p                 	-7.3074795401e-01	(8.6154540126e-02 -3.1374153670e-01 0.0000000000e+00)	0	4.5414321661e-01	(1.2734612623e-02 -3.5077053945e-01 -2.0900657638e-17)	0