# Force           
# CofR            : (0.0000000000e+00 0.0000000000e+00 0.0000000000e+00)
#
# Time            	total_x total_y total_z	pressure_x pressure_y pressure_z	viscous_x viscous_y viscous_z
1.19998e-05        8.5901542754e+02 2.9629885244e+03 4.8143256658e-19 8.5810821619e+02 2.9629627092e+03 4.8149067058e-19 9.0721135632e-01 2.5815196917e-02 -5.8104001663e-23
2.63998e-05        7.9537863898e+00 2.5332866642e+01 -4.1685284633e-19 7.0502125796e+00 2.5314404291e+01 -4.1614619899e-19 9.0357381025e-01 1.8462350845e-02 -7.0664733113e-22
4.36791e-05        1.4130067991e+00 1.3589344278e+00 9.2056712843e-22 5.1278894481e-01 1.3440090315e+00 1.3972275396e-21 9.0021785429e-01 1.4925396290e-02 -4.7666041118e-22
6.4415e-05         1.7754602407e+00 -6.6463136767e+00 -1.8841562959e-19 8.7837296184e-01 -6.6591093413e+00 -1.8804684259e-19 8.9708727889e-01 1.2795664614e-02 -3.6878700099e-22
8.92981e-05        1.1031745694e+00 -5.1571535360e-01 -1.8789252764e-20 2.0947879760e-01 -5.2712275908e-01 -1.8608374968e-20 8.9369577180e-01 1.1407405480e-02 -1.8087779580e-22
0.000119158        1.1372832152e+00 -4.8666562237e-01 1.6683142613e-20 2.4728564310e-01 -4.9707253696e-01 1.6492282011e-20 8.8999757209e-01 1.0406914594e-02 1.9086060188e-22
0.000154992        1.0393272246e+00 -2.0446562558e+00 5.3264202731e-20 1.5354083606e-01 -2.0542750267e+00 5.2940614910e-20 8.8578638858e-01 9.6187709329e-03 3.2358782078e-22
0.000197997        9.9504568479e-01 2.6053347308e-02 3.5944350426e-20 1.1413151210e-01 1.7069868834e-02 3.5917085099e-20 8.8091417269e-01 8.9834784735e-03 2.7265326851e-23
0.000249599        9.8802042122e-01 1.2246835742e-01 1.6434012596e-21 1.1272279329e-01 1.1403510622e-01 1.8187018648e-21 8.7529762793e-01 8.4332512065e-03 -1.7530060522e-22
0.000311517        9.9236066728e-01 -2.7785323567e-02 3.5928612031e-21 1.2358304991e-01 -3.5722471844e-02 3.8087582674e-21 8.6877761737e-01 7.9371482775e-03 -2.1589706425e-22
0.000385806        1.0383248904e+00 -4.0711977214e-01 6.3705649501e-21 1.7707907384e-01 -4.1459029516e-01 5.7003913295e-21 8.6124581656e-01 7.4705230217e-03 6.7017362057e-22
0.00047496         9.6915881709e-01 3.0054184321e-01 -4.9740030570e-21 1.1670392400e-01 2.9350432874e-01 -4.6677787608e-21 8.5245489309e-01 7.0375144710e-03 -3.0622429620e-22
0.000581944        1.0440330730e+00 5.2050081711e-01 -4.0167754474e-21 2.0168032303e-01 5.1387526276e-01 -4.0970274212e-21 8.4235275000e-01 6.6255543506e-03 8.0251973788e-23
0.000710352        9.5603548932e-01 4.6221479276e-01 -4.3267485991e-21 1.2542062257e-01 4.5597138485e-01 -3.8531874649e-21 8.3061486675e-01 6.2434079062e-03 -4.7356113418e-22
0.000864481        9.2968137716e-01 4.8984673704e-01 -9.7527238139e-21 1.1253653735e-01 4.8398438481e-01 -8.6496277048e-21 8.1714483981e-01 5.8623522253e-03 -1.1030961091e-21
0.00104938         9.0686010561e-01 5.0771626293e-01 4.0580519196e-21 1.0505998446e-01 5.0223752605e-01 4.1324120208e-21 8.0180012115e-01 5.4787368788e-03 -7.4360101257e-23
0.00127118         8.9512595802e-01 3.2725154285e-01 -1.5038409193e-21 1.1062040167e-01 3.2219779879e-01 -1.1380622399e-21 7.8450555636e-01 5.0537440651e-03 -3.6577867945e-22
0.00153721         8.6223492594e-01 5.0106549268e-01 1.2172923316e-21 9.7131366329e-02 4.9644457341e-01 1.0476502360e-21 7.6510355961e-01 4.6209192702e-03 1.6964209563e-22
0.00185628         8.3578933059e-01 5.2612883318e-01 -3.4147512746e-21 9.2215814229e-02 5.2198796865e-01 -2.9636771717e-21 7.4357351636e-01 4.1408645304e-03 -4.5107410291e-22
0.0022388          8.0806413540e-01 5.4018816359e-01 1.9904109458e-21 8.8109258573e-02 5.3652665612e-01 1.9816184874e-21 7.1995487683e-01 3.6615074631e-03 8.7924583798e-24
0.00269764         7.7854651114e-01 5.4953228513e-01 -3.3365030848e-21 8.4253310255e-02 5.4632437611e-01 -2.9519229241e-21 6.9429320089e-01 3.2079090233e-03 -3.8458016073e-22
0.00324877         7.4709060278e-01 5.5564946585e-01 2.0570857812e-21 8.0422547271e-02 5.5288112569e-01 2.1648173786e-21 6.6666805551e-01 2.7683401659e-03 -1.0773159732e-22
0.00390901         7.1385724795e-01 5.5972031602e-01 9.3612734663e-22 7.6586277780e-02 5.5736684857e-01 6.7193515343e-22 6.3727097017e-01 2.3534674504e-03 2.6419219320e-22
0.0046997          6.7896589824e-01 5.5130319778e-01 -1.6402654168e-21 7.2634643168e-02 5.4933681669e-01 -1.5250075959e-21 6.0633125507e-01 1.9663810877e-03 -1.1525782083e-22
0.00564775         6.4288732134e-01 5.5878571077e-01 -1.4311341403e-21 6.8912586495e-02 5.5719901919e-01 -1.3237785703e-21 5.7397473484e-01 1.5866915801e-03 -1.0735557000e-22
0.00678432         6.0544075046e-01 5.5630887747e-01 1.1326163928e-24 6.5051252943e-02 5.5509629050e-01 1.5020806614e-23 5.4038949752e-01 1.2125869724e-03 -1.3888190221e-23
0.00814499         5.6655741662e-01 5.6228055002e-01 -9.6015544856e-23 6.0731115100e-02 5.6140892790e-01 4.0378386864e-23 5.0582630152e-01 8.7162211580e-04 -1.3639393172e-22
0.00977088         5.2771301551e-01 5.4997839262e-01 7.8429783066e-22 5.7095338632e-02 5.4942214251e-01 9.9526962458e-22 4.7061767688e-01 5.5625010438e-04 -2.1097179392e-22
0.011712           4.8859551852e-01 5.4136151152e-01 7.7314243480e-23 5.3372191245e-02 5.4112197227e-01 3.2971455304e-22 4.3522332727e-01 2.3953925439e-04 -2.5240030956e-22
0.0140365          4.4982140173e-01 5.3231277644e-01 -5.2199244943e-22 4.9736559492e-02 5.3237719476e-01 -3.8563351859e-22 4.0008484224e-01 -6.4418315705e-05 -1.3635893084e-22
0.0168121          4.1229426031e-01 5.2237401643e-01 -9.1961504963e-22 4.6291239350e-02 5.2273990449e-01 -6.7148611172e-22 3.6600302096e-01 -3.6588806704e-04 -2.4812893791e-22
0.0201428          3.7644768051e-01 5.1134155732e-01 -3.2502139471e-22 4.3113089822e-02 5.1199602612e-01 -1.3889054870e-22 3.3333459069e-01 -6.5446880124e-04 -1.8613084601e-22
0.0241396          3.4284484660e-01 4.9929732865e-01 -1.0839066830e-22 4.0260153646e-02 5.0022799267e-01 -1.8923372457e-22 3.0258469295e-01 -9.3066402166e-04 8.0843056276e-23
0.0288926          3.1234574611e-01 4.7535676634e-01 4.3200915287e-22 3.7962016405e-02 4.7656359585e-01 4.3797119349e-22 2.7438372971e-01 -1.2068295129e-03 -5.9620406221e-24
0.0344122          2.8535309030e-01 4.6670921005e-01 -9.7686138122e-22 3.6021494432e-02 4.6817691205e-01 -8.8196682370e-22 2.4933159587e-01 -1.4677019982e-03 -9.4894557523e-23
0.040781           2.6166952322e-01 4.4837429835e-01 8.6786622748e-22 3.4365727136e-02 4.5010690219e-01 6.3574371736e-22 2.2730379609e-01 -1.7326038384e-03 2.3212251012e-22
0.0480182          2.4121514863e-01 4.2526851791e-01 6.7466583604e-22 3.3025068891e-02 4.2728786019e-01 7.7791502930e-22 2.0819007974e-01 -2.0193422809e-03 -1.0324919326e-22
0.0560172          2.2379084252e-01 3.9699883255e-01 3.4254971431e-22 3.1904742383e-02 3.9933703789e-01 2.4777210847e-22 1.9188610013e-01 -2.3382053449e-03 9.4777605839e-23
0.0650162          2.0854281897e-01 3.6576040525e-01 -3.9302304574e-22 3.0934174055e-02 3.6846637762e-01 -4.0104309222e-22 1.7760864491e-01 -2.7059723712e-03 8.0200464727e-24
0.0753995          1.9475662821e-01 3.2994397995e-01 -1.0046862004e-21 2.9992716948e-02 3.3309013778e-01 -8.9189723629e-22 1.6476391126e-01 -3.1461578372e-03 -1.1278896413e-22
0.0857829          1.8283649972e-01 2.7521625070e-01 2.0980503067e-23 2.8390282083e-02 2.7889370045e-01 -5.4569350723e-24 1.5444621763e-01 -3.6774497530e-03 2.6437438139e-23
0.0961663          1.7285683879e-01 2.3058646671e-01 5.7272482796e-22 2.6926499414e-02 2.3481261494e-01 4.0595610318e-22 1.4593033937e-01 -4.2261482222e-03 1.6676872478e-22
0.10655            1.6609072955e-01 2.2060494107e-01 -5.9687489109e-22 2.7288784507e-02 2.2526620830e-01 -7.0333030801e-22 1.3880194504e-01 -4.6612672267e-03 1.0645541692e-22
0.116933           1.5749950850e-01 2.9678234263e-01 5.3050211964e-22 2.5109922116e-02 3.0137652119e-01 5.1639012028e-22 1.3238958638e-01 -4.5941785595e-03 1.4111999361e-23
0.127316           1.5826577080e-01 3.2478640996e-01 2.1554242769e-23 3.1128988590e-02 3.2940376840e-01 5.3696833456e-23 1.2713678221e-01 -4.6173584416e-03 -3.2142590687e-23
0.1377             1.5102210180e-01 3.1239695262e-01 6.5306999358e-22 2.8667655342e-02 3.1711270691e-01 7.9576804808e-22 1.2235444646e-01 -4.7157542880e-03 -1.4269805449e-22
0.148083           1.5001841117e-01 3.2092425170e-01 -6.4983743515e-22 3.1767864944e-02 3.2574677754e-01 -4.7343448626e-22 1.1825054622e-01 -4.8225258390e-03 -1.7640294889e-22
0.158467           1.4782242072e-01 3.2653495949e-01 7.5155889938e-22 3.3232998835e-02 3.3145918008e-01 6.4844695396e-22 1.1458942189e-01 -4.9242205935e-03 1.0311194541e-22
0.16885            1.4528041969e-01 3.1898030071e-01 4.9980163833e-22 3.3972847648e-02 3.2402209026e-01 3.6448290659e-22 1.1130757204e-01 -5.0417895525e-03 1.3531873174e-22
0.179233           1.4374261951e-01 3.2791715159e-01 6.0084035694e-24 3.5421542130e-02 3.3305951567e-01 -3.7841947462e-22 1.0832107738e-01 -5.1423640789e-03 3.8442787819e-22
0.189617           1.4222290928e-01 3.3147034773e-01 -2.7543515180e-22 3.6623041834e-02 3.3670730314e-01 -9.0142425641e-23 1.0559986744e-01 -5.2369554168e-03 -1.8529272616e-22
0.2                1.4107718678e-01 3.3353213953e-01 3.7699863013e-22 3.7960805146e-02 3.3886265989e-01 2.8614949081e-22 1.0311638163e-01 -5.3305203651e-03 9.0849139321e-23
0.21               1.3983396849e-01 3.3382949965e-01 2.2871225774e-22 3.8917961329e-02 3.3925751730e-01 2.3401042861e-22 1.0091600716e-01 -5.4280176480e-03 -5.2981708656e-24
0.22               1.3985155978e-01 3.3309441221e-01 8.1577117983e-22 4.0926898381e-02 3.3861900518e-01 8.2945297252e-22 9.8924661397e-02 -5.5245929672e-03 -1.3681792691e-23
0.23               1.3651325632e-01 3.3163640701e-01 1.3822551937e-22 3.9571907004e-02 3.3725446312e-01 1.7152726800e-22 9.6941349315e-02 -5.6180561066e-03 -3.3301748630e-23
0.24               1.4253604325e-01 3.5748386890e-01 1.0372368128e-21 4.7161931389e-02 3.6317531708e-01 8.0945497383e-22 9.5374111866e-02 -5.6914481839e-03 2.2778183898e-22
0.25               1.3863287033e-01 3.4881722710e-01 3.3451463719e-22 4.4932853650e-02 3.5458720964e-01 1.6112799266e-22 9.3700016685e-02 -5.7699825472e-03 1.7338664453e-22
0.26               1.3777311678e-01 3.5011477071e-01 3.2368421873e-22 4.5656923932e-02 3.5596101425e-01 2.7902925514e-22 9.2116192850e-02 -5.8462435368e-03 4.4654963586e-23
0.27               1.3753190780e-01 3.5169100413e-01 -9.7337129535e-22 4.6895592211e-02 3.5761363712e-01 -1.0701216551e-21 9.0636315591e-02 -5.9226329887e-03 9.6750359777e-23
0.28               1.3820484106e-01 3.5770154510e-01 1.1260795859e-21 4.8937267494e-02 3.6369223480e-01 1.0517263826e-21 8.9267573565e-02 -5.9906897021e-03 7.4353203336e-23
0.29               1.3652275533e-01 3.4891131184e-01 -1.2315114596e-22 4.8584593951e-02 3.5498687903e-01 -1.5207118503e-22 8.7938161378e-02 -6.0755671890e-03 2.8920039074e-23
0.3                1.3668649722e-01 3.5389434922e-01 7.4122931148e-22 5.0010191052e-02 3.6004397916e-01 7.4486790570e-22 8.6676306173e-02 -6.1496299481e-03 -3.6385942165e-24
0.31               1.3705691562e-01 3.5801101123e-01 -8.1589529054e-22 5.1569310309e-02 3.6423103199e-01 -6.4044354210e-22 8.5487605310e-02 -6.2200207619e-03 -1.7545174844e-22
0.32               1.3800065087e-01 3.5472088276e-01 -5.8852218966e-22 5.3575754068e-02 3.6103004278e-01 -7.1538995874e-22 8.4424896798e-02 -6.3091600216e-03 1.2686776908e-22
0.33               1.3680627929e-01 3.5800425682e-01 6.5389786072e-22 5.3486607618e-02 3.6438602737e-01 7.6885484103e-22 8.3319671675e-02 -6.3817705452e-03 -1.1495698031e-22
0.34               1.3843368761e-01 3.8267715138e-01 -4.5406952003e-22 5.6209800084e-02 3.8907731039e-01 -3.2986611099e-22 8.2223887529e-02 -6.4001590052e-03 -1.2420340905e-22
0.35               1.3775009280e-01 3.7316688823e-01 8.7752733467e-23 5.6545016685e-02 3.7962282580e-01 6.9824934744e-23 8.1205076112e-02 -6.4559375774e-03 1.7927798723e-23
0.36               1.3810394103e-01 3.7378290064e-01 1.3523220782e-21 5.7860871355e-02 3.8029780043e-01 1.3251106917e-21 8.0243069672e-02 -6.5148997869e-03 2.7211386437e-23
0.37               1.3869891774e-01 3.6517178272e-01 7.5767375893e-22 5.9301052393e-02 3.7177564762e-01 8.1600366087e-22 7.9397865349e-02 -6.6038648999e-03 -5.8329901936e-23
0.38               1.4108519593e-01 3.8553450302e-01 5.7744164708e-22 6.2535183975e-02 3.9218619374e-01 5.0712230400e-22 7.8550011955e-02 -6.6516907195e-03 7.0319343073e-23
0.39               1.4040151507e-01 3.6589818065e-01 -2.9376523177e-23 6.2592737251e-02 3.7264609122e-01 -2.5492029142e-22 7.7808777822e-02 -6.7479105785e-03 2.2554376824e-22
0.4                1.3874032939e-01 3.5374282048e-01 5.5496072630e-22 6.1690074724e-02 3.6060059562e-01 4.1815918559e-22 7.7050254670e-02 -6.8577751412e-03 1.3680154070e-22
0.41               1.4136154215e-01 3.6670613436e-01 3.4648608034e-22 6.5016695527e-02 3.7364519120e-01 5.0599303795e-22 7.6344846622e-02 -6.9390568366e-03 -1.5950695761e-22
0.42               1.4439160298e-01 3.7599806518e-01 -8.1707186572e-22 6.8666503530e-02 3.8301138572e-01 -7.7842065289e-22 7.5725099448e-02 -7.0133205415e-03 -3.8651212829e-23
0.43               1.4345459037e-01 3.7919193129e-01 4.2032587392e-23 6.8444342717e-02 3.8626044256e-01 2.3328842941e-22 7.5010247649e-02 -7.0685112689e-03 -1.9125584202e-22
0.44               1.4411275109e-01 3.7812133913e-01 9.4559361767e-22 6.9764532170e-02 3.8525672852e-01 8.2905709109e-22 7.4348218922e-02 -7.1353893868e-03 1.1653652658e-22
0.45               1.4555383552e-01 3.8065252699e-01 -4.9118809818e-22 7.1818846718e-02 3.8785622790e-01 -8.9636468272e-22 7.3734988806e-02 -7.2037009068e-03 4.0517658454e-22
0.46               1.4507610644e-01 3.7855928201e-01 -2.0916929225e-22 7.1976453825e-02 3.8583132067e-01 -2.7706570890e-22 7.3099652617e-02 -7.2720386628e-03 6.7896416647e-23
0.47               1.4648948645e-01 3.8587991649e-01 -2.8568113736e-22 7.4009218709e-02 3.9320543615e-01 -6.8061897225e-23 7.2480267744e-02 -7.3255196627e-03 -2.1761924013e-22
0.48               1.4703680187e-01 3.8180424647e-01 -1.2304306791e-21 7.5116124539e-02 3.8919801516e-01 -1.3887401893e-21 7.1920677328e-02 -7.3937686943e-03 1.5830951020e-22
0.49               1.4988008218e-01 3.9194290701e-01 3.5029688621e-22 7.8472048077e-02 3.9939082703e-01 5.9790985298e-22 7.1408034101e-02 -7.4479200151e-03 -2.4761296677e-22
0.5                1.4979351974e-01 3.9422944269e-01 1.2557128764e-21 7.8947152304e-02 4.0172310217e-01 1.3828484114e-21 7.0846367434e-02 -7.4936594790e-03 -1.2713553502e-22
0.51               1.5022986909e-01 3.9294736803e-01 -1.0105465484e-21 7.9915143124e-02 4.0050268145e-01 -7.5139102849e-22 7.0314725967e-02 -7.5553134201e-03 -2.5915551988e-22
0.52               1.5114282092e-01 3.9555485587e-01 8.6698556018e-22 8.1347246696e-02 4.0317215111e-01 5.3505299990e-22 6.9795574222e-02 -7.6172952383e-03 3.3193256028e-22
0.53               1.5185009818e-01 3.9530411183e-01 7.2310190352e-22 8.2550962041e-02 4.0298301643e-01 9.9917901739e-22 6.9299136142e-02 -7.6789045989e-03 -2.7607711387e-22
0.54               1.5329020539e-01 3.9515878467e-01 3.7745981855e-22 8.4438804153e-02 4.0290701576e-01 7.9226559811e-22 6.8851401234e-02 -7.7482310966e-03 -4.1480577956e-22
0.55               1.5422001490e-01 3.9949249255e-01 -1.1716781905e-21 8.5834134958e-02 4.0729726330e-01 -1.1239122558e-21 6.8385879943e-02 -7.8047707518e-03 -4.7765934656e-23
0.56               1.5589015375e-01 3.9224277618e-01 6.1121921570e-22 8.7844690276e-02 4.0014117631e-01 4.1361794596e-22 6.8045463478e-02 -7.8984001246e-03 1.9760126974e-22
0.57               1.5326419407e-01 3.9250143746e-01 -2.8604000179e-22 8.5763278185e-02 4.0044525476e-01 -1.5114111576e-22 6.7500915883e-02 -7.9438172977e-03 -1.3489888603e-22
0.58               1.5669291037e-01 3.8953906802e-01 -1.0168341202e-21 8.9522017418e-02 3.9757316488e-01 -1.1100581623e-21 6.7170892950e-02 -8.0340968577e-03 9.3224042053e-23
0.59               1.5723890405e-01 4.0684839172e-01 4.5361700453e-22 9.0590945303e-02 4.1490307620e-01 4.3707347015e-22 6.6647958748e-02 -8.0546844738e-03 1.6543534385e-23
0.6                1.5841985643e-01 4.0671231047e-01 7.3010242428e-22 9.2220489079e-02 4.1480437669e-01 5.8617236608e-22 6.6199367354e-02 -8.0920662189e-03 1.4393005821e-22
0.609524           1.5823054220e-01 4.0049571046e-01 -1.0649105346e-23 9.2410216653e-02 4.0865868362e-01 2.1977401057e-22 6.5820325543e-02 -8.1629731559e-03 -2.3042311592e-22
0.619048           1.5997763867e-01 4.0658846651e-01 -2.3376949560e-21 9.4545685989e-02 4.1479612041e-01 -2.5385511131e-21 6.5431952680e-02 -8.2076538944e-03 2.0085615705e-22
0.628571           1.6011731457e-01 4.0113473861e-01 1.6083369734e-21 9.5041847640e-02 4.0940156132e-01 1.3765506722e-21 6.5075466933e-02 -8.2668227106e-03 2.3178630118e-22
0.638095           1.6236540763e-01 4.0177124028e-01 -1.0162250227e-21 9.7578856154e-02 4.1010848079e-01 -1.2104645088e-21 6.4786551479e-02 -8.3372405040e-03 1.9423948612e-22
0.647619           1.6335578143e-01 4.0790131156e-01 -1.5468442224e-21 9.8919555289e-02 4.1628105540e-01 -2.1660984925e-21 6.4436226143e-02 -8.3797438427e-03 6.1925427015e-22
0.657143           1.6283817763e-01 4.0866191570e-01 7.8954576999e-22 9.8812355466e-02 4.1707277667e-01 8.1565187200e-22 6.4025822165e-02 -8.4108609733e-03 -2.6106102014e-23
0.666667           1.6350112522e-01 4.0596568111e-01 -1.2610151963e-22 9.9837239136e-02 4.1442085700e-01 1.5941982671e-23 6.3663886085e-02 -8.4551758914e-03 -1.4204350230e-22
0.67619            1.6621751168e-01 4.2346189401e-01 3.5436534395e-22 1.0299179304e-01 4.3191531409e-01 5.3069897260e-22 6.3225718641e-02 -8.4534200747e-03 -1.7633362865e-22
0.685714           1.6872030558e-01 4.1733601111e-01 5.4683203285e-22 1.0574096322e-01 4.2583969761e-01 3.4413308767e-22 6.2979342357e-02 -8.5036864946e-03 2.0269894518e-22
0.695238           1.6929175434e-01 4.1868687272e-01 1.4837966355e-21 1.0660977383e-01 4.2722813513e-01 1.6316847421e-21 6.2681980510e-02 -8.5412624158e-03 -1.4788810660e-22
0.704762           1.7055392704e-01 4.1972753088e-01 6.9312405952e-22 1.0816078901e-01 4.2831091046e-01 4.2979211067e-22 6.2393138036e-02 -8.5833795800e-03 2.6333194885e-22
0.714286           1.7093924144e-01 4.1858739928e-01 -2.4246390092e-22 1.0884060504e-01 4.2722467812e-01 4.5177856388e-22 6.2098636394e-02 -8.6372788310e-03 -6.9424246480e-22
0.72381            1.7277145811e-01 4.2426251421e-01 1.5045064485e-22 1.1097807105e-01 4.3293625150e-01 -1.0038209014e-22 6.1793387062e-02 -8.6737372902e-03 2.5083273499e-22
0.733333           1.7367388802e-01 4.2404107837e-01 9.9713350943e-22 1.1217386555e-01 4.3275342395e-01 7.4723485253e-22 6.1500022468e-02 -8.7123455774e-03 2.4989865690e-22
0.742857           1.7196511719e-01 4.1533651597e-01 6.4034131631e-22 1.1077729802e-01 4.2409906929e-01 -6.6472008636e-24 6.1187819171e-02 -8.7625533276e-03 6.4698851718e-22
0.752381           1.7355189856e-01 4.1359117097e-01 4.9721856460e-22 1.1261592431e-01 4.2241860945e-01 1.2548559697e-22 6.0935974250e-02 -8.8274384734e-03 3.7173296762e-22
0.761905           1.7631895289e-01 4.1883496899e-01 1.8368204306e-21 1.1560992639e-01 4.2771683995e-01 2.5893384131e-21 6.0709026501e-02 -8.8818709644e-03 -7.5251798249e-22
0.771429           1.7536400345e-01 4.1464285869e-01 -2.1047046855e-22 1.1492007360e-01 4.2357607115e-01 -1.4808854166e-22 6.0443929844e-02 -8.9332124560e-03 -6.2381926892e-23
0.780952           1.7744529218e-01 4.2315252637e-01 -4.2417238321e-22 1.1730802448e-01 4.3211027557e-01 -1.0064105760e-21 6.0137267699e-02 -8.9577492003e-03 5.8223819278e-22
0.790476           1.7923083352e-01 4.2559444288e-01 -9.1532913196e-22 1.1936100456e-01 4.3458496156e-01 -1.0598409352e-21 5.9869828961e-02 -8.9905186730e-03 1.4451180325e-22
0.8                1.8095018541e-01 4.3055910610e-01 -4.6483143291e-22 1.2136290007e-01 4.3957010006e-01 -4.4753509122e-22 5.9587285338e-02 -9.0109939604e-03 -1.7296341693e-23
0.809091           1.8353031649e-01 4.2399029060e-01 -4.2820022965e-22 1.2401181527e-01 4.3309740464e-01 -2.3817303567e-22 5.9518501221e-02 -9.1071140412e-03 -1.9002719398e-22
0.818182           1.8083649394e-01 4.1851121826e-01 1.4307988648e-21 1.2156198226e-01 4.2767544834e-01 1.4033623752e-21 5.9274511682e-02 -9.1642300801e-03 2.7436489621e-23
0.827273           1.8383627325e-01 4.2818733747e-01 -5.6639496435e-23 1.2480674130e-01 4.3738359491e-01 -2.5406635177e-22 5.9029531950e-02 -9.1962574471e-03 1.9742685534e-22
0.836364           1.8820586492e-01 4.4143910501e-01 1.1125541218e-21 1.2940379197e-01 4.5064445362e-01 1.1640164454e-21 5.8802072944e-02 -9.2053486149e-03 -5.1462323621e-23
0.845455           1.8757959365e-01 4.3692184717e-01 5.4965265192e-21 1.2901626689e-01 4.4615116916e-01 5.7317426935e-21 5.8563326767e-02 -9.2293219842e-03 -2.3521617430e-22
0.854545           1.8657285921e-01 4.2350023120e-01 2.0016187279e-21 1.2816583725e-01 4.3280281469e-01 1.5674590343e-21 5.8407021960e-02 -9.3025834952e-03 4.3415969359e-22
0.863636           1.8755918097e-01 4.3521754308e-01 3.1369762470e-21 1.2945222713e-01 4.4452380211e-01 3.6986512023e-21 5.8106953835e-02 -9.3062590300e-03 -5.6167495526e-22
0.872727           1.8673907957e-01 4.3711269279e-01 2.8549858828e-22 1.2901306321e-01 4.4639808138e-01 -3.9057889441e-22 5.7726016366e-02 -9.2853885834e-03 6.7607748269e-22
0.881818           1.8995266435e-01 4.4123692810e-01 1.7623980875e-22 1.3249098549e-01 4.5052921276e-01 -4.6857273827e-23 5.7461678859e-02 -9.2922846628e-03 2.2309708258e-22
0.890909           1.9203451527e-01 4.4442515627e-01 -1.8988167707e-21 1.3481091234e-01 4.5372684848e-01 -1.9634522485e-21 5.7223602936e-02 -9.3016922123e-03 6.4635477746e-23
