# Moment          
# CofR            : (0.0000000000e+00 0.0000000000e+00 0.0000000000e+00)
#
# Time            	total_x total_y total_z	pressure_x pressure_y pressure_z	viscous_x viscous_y viscous_z
1.19998e-05        -4.3998583939e-19 2.3349701646e-18 2.5547212377e+03 -4.4001217236e-19 2.3349418130e-18 2.5542350516e+03 2.6332972952e-23 2.8351578358e-23 4.8618609843e-01
2.63998e-05        2.0270916509e-19 8.1926361259e-20 2.5550885639e+01 2.0237175064e-19 8.1799882673e-20 2.5074600270e+01 3.3741444703e-22 1.2647858589e-22 4.7628536951e-01
4.36791e-05        -1.0623150805e-21 1.4528300322e-21 2.6456744990e+00 -1.2745315173e-21 1.3386674007e-21 2.1749480553e+00 2.1221643684e-22 1.1416263149e-22 4.7072644365e-01
6.4415e-05         9.4080566438e-20 4.9803052182e-20 -1.7404835962e+00 9.3894978378e-20 5.0085953999e-20 -2.2073632824e+00 1.8558806012e-22 -2.8290181666e-22 4.6687968621e-01
8.92981e-05        8.3272641217e-21 1.3092578129e-20 5.7489118520e-01 8.2409378883e-21 1.3223408873e-20 1.1120181443e-01 8.6326233437e-23 -1.3083074325e-22 4.6368937077e-01
0.000119158        -1.1863514348e-20 -1.5534821205e-22 4.2979492895e-01 -1.1758073636e-20 -1.5366103186e-23 -3.0976643192e-02 -1.0544071213e-22 -1.3998210887e-22 4.6077157214e-01
0.000154992        -2.7205445396e-20 -1.6942712979e-20 -3.4313528731e-01 -2.7054044171e-20 -1.6824296842e-20 -8.0098094561e-01 -1.5140122487e-22 -1.1841613713e-22 4.5784565830e-01
0.000197997        -1.6269331926e-20 -1.9973803388e-20 7.4521371250e-01 -1.6259995181e-20 -1.9764099785e-20 2.9046351980e-01 -9.3367456391e-24 -2.0970360381e-22 4.5475019270e-01
0.000249599        -8.3155165233e-22 -1.1418565164e-21 6.4680391122e-01 -9.0160994205e-22 -1.0918452469e-21 1.9543309716e-01 7.0058289727e-23 -5.0011269541e-23 4.5137081406e-01
0.000311517        -1.8212043201e-21 -7.7308566537e-22 5.4239821260e-01 -1.9309571603e-21 -7.2260506905e-22 9.4800199487e-02 1.0975284020e-22 -5.0480596315e-23 4.4759801311e-01
0.000385806        -4.1862485184e-21 6.6155637832e-21 4.3036342864e-01 -3.8621667164e-21 6.8957878093e-21 -1.2992619883e-02 -3.2408180197e-22 -2.8022402619e-22 4.4335604852e-01
0.00047496         2.3162520870e-21 -1.1497053410e-22 6.9578635968e-01 2.1714666938e-21 -3.6052562886e-23 2.5727833304e-01 1.4478539314e-22 -7.8917971209e-23 4.3850802665e-01
0.000581944        2.5444373268e-21 9.0487149974e-21 8.1993837746e-01 2.5652654012e-21 9.0929613196e-21 3.8692408250e-01 -2.0828074380e-23 -4.4246322190e-23 4.3301429496e-01
0.000710352        1.9656760986e-21 1.3504181769e-21 7.5218793217e-01 1.7474997627e-21 1.1364670048e-21 3.2547154870e-01 2.1817633593e-22 2.1395117207e-22 4.2671638348e-01
0.000864481        4.9140864464e-21 9.0460728127e-22 7.5053508525e-01 4.3755237704e-21 4.2767318931e-22 3.3098383749e-01 5.3856267600e-22 4.7693409196e-22 4.1955124775e-01
0.00104938         -2.0611433732e-21 -1.7312471075e-21 7.4550452834e-01 -2.0829241769e-21 -1.7290726429e-21 3.3406803349e-01 2.1780803691e-23 -2.1744645305e-24 4.1143649485e-01
0.00127118         9.0178466043e-22 1.7508987810e-21 6.5636014929e-01 7.1219536795e-22 1.4634243089e-21 2.5405500513e-01 1.8958929248e-22 2.8747447213e-22 4.0230514415e-01
0.00153721         -6.1121762008e-22 4.6483537275e-22 7.1676424009e-01 -5.3716229275e-22 2.7673389256e-22 3.2467077971e-01 -7.4055327340e-23 1.8810148019e-22 3.9209346038e-01
0.00185628         1.6111369335e-21 7.4947069519e-22 7.1352385507e-01 1.3929523300e-21 6.5250900171e-22 3.3275925619e-01 2.1818460348e-22 9.6961693482e-23 3.8076459889e-01
0.0022388          -1.0342647765e-21 -4.9710751356e-22 7.0493194763e-01 -1.0276235525e-21 -5.5548628367e-22 3.3656692425e-01 -6.6412239539e-24 5.8378770114e-23 3.6836502338e-01
0.00269764         1.7121426589e-21 8.5709598795e-22 6.9330588276e-01 1.5215290321e-21 4.9948915469e-22 3.3835523615e-01 1.9061362678e-22 3.5760683326e-22 3.5495064662e-01
0.00324877         -9.9891837713e-22 2.5668771022e-22 6.7939550545e-01 -1.0575772397e-21 5.1466757597e-23 3.3883983091e-01 5.8658862549e-23 2.0522095262e-22 3.4055567454e-01
0.00390901         -3.9404536188e-22 -3.1009423188e-22 6.6368070175e-01 -2.6173132081e-22 -2.7640098636e-22 3.3840045825e-01 -1.3231404106e-22 -3.3693245517e-23 3.2528024349e-01
0.0046997          8.3396632567e-22 1.1472150139e-21 6.4086966409e-01 7.7657056602e-22 8.8255589231e-22 3.3163259638e-01 5.7395759650e-23 2.6465912159e-22 3.0923706771e-01
0.00564775         7.0797670562e-22 3.2848395663e-22 6.2475483105e-01 6.6584563962e-22 1.9579567314e-22 3.3227105717e-01 4.2131065995e-23 1.3268828349e-22 2.9248377388e-01
0.00678432         1.8596763964e-24 6.3126527033e-23 6.0288765280e-01 -2.3601803110e-24 8.7439510545e-23 3.2776803289e-01 4.2198567074e-24 -2.4312983512e-23 2.7511961992e-01
0.00814499         5.6885644168e-24 2.5206048783e-22 5.8406945650e-01 -6.1423974806e-23 1.8184638196e-22 3.2677868834e-01 6.7112539223e-23 7.0214105868e-23 2.5729076817e-01
0.00977088         -3.8634231178e-22 -1.0292491959e-22 5.5672843031e-01 -4.9817430867e-22 -2.8524401611e-22 3.1756697691e-01 1.1183199689e-22 1.8231909652e-22 2.3916145340e-01
0.011712           -4.2822009723e-23 1.8235774074e-22 5.3054271953e-01 -1.7875861806e-22 3.4754924872e-23 3.0960066261e-01 1.3593660834e-22 1.4760281587e-22 2.2094205692e-01
0.0140365          3.0985502090e-22 1.4895761633e-22 5.0444397450e-01 2.3881914927e-22 7.5269082543e-23 3.0157113894e-01 7.1035871629e-23 7.3688533789e-23 2.0287283555e-01
0.0168121          4.0922183513e-22 5.1689392812e-22 4.7871319533e-01 2.9021803527e-22 4.0293695052e-22 2.9335681267e-01 1.1900379986e-22 1.1395697760e-22 1.8535638267e-01
0.0201428          1.5280916825e-22 6.4228949855e-22 4.5341173326e-01 5.7617136631e-23 5.4711630370e-22 2.8483044639e-01 9.5192031622e-23 9.5173194853e-23 1.6858128687e-01
0.0241396          4.9357213050e-23 5.1601173546e-22 4.2893812739e-01 8.3497448998e-23 4.7479929481e-22 2.7612436529e-01 -3.4140235948e-23 4.1212440654e-23 1.5281376210e-01
0.0288926          -2.0133003926e-22 1.4189214904e-22 3.9971630423e-01 -2.0797482280e-22 5.4466687497e-23 2.6135342006e-01 6.6447835410e-24 8.7425461541e-23 1.3836288417e-01
0.0344122          4.7662641709e-22 2.3042698301e-22 3.8083663109e-01 4.2499010799e-22 5.0211498306e-23 2.5530731354e-01 5.1636309100e-23 1.8021548471e-22 1.2552931756e-01
0.040781           -4.1384708777e-22 -1.6642057241e-22 3.5854941220e-01 -2.9481092860e-22 -7.6924478105e-23 2.4431240989e-01 -1.1903615917e-22 -8.9496094304e-23 1.1423700231e-01
0.0480182          -3.2887539902e-22 -1.9837198476e-22 3.3549995677e-01 -3.7234584865e-22 -2.1688001023e-22 2.3108229742e-01 4.3470449631e-23 1.8508025472e-23 1.0441765936e-01
0.0560172          -1.6400454041e-22 -2.0358796219e-22 3.1145802690e-01 -1.1916838558e-22 -1.2394490351e-22 2.1544609525e-01 -4.4836154824e-23 -7.9643058681e-23 9.6011931651e-02
0.0650162          1.7311679014e-22 2.2534849819e-22 2.8719023383e-01 1.7252551135e-22 1.6479993789e-22 1.9857718705e-01 5.9127878526e-25 6.0548560302e-23 8.8613046780e-02
0.0753995          4.8608433194e-22 3.0380909708e-22 2.6145835112e-01 4.2316222479e-22 2.6232836659e-22 1.7955117197e-01 6.2922107146e-23 4.1480730499e-23 8.1907179145e-02
0.0857829          -2.5396477096e-23 -8.7928135187e-23 2.2762110142e-01 -1.4279230408e-23 -3.4095713881e-23 1.5118128428e-01 -1.1117246688e-23 -5.3832421306e-23 7.6439817143e-02
0.0961663          -2.5864904140e-22 -7.8080078261e-22 2.0003763901e-01 -1.8119512152e-22 -7.1420418360e-22 1.2815938363e-01 -7.7453919884e-23 -6.6596599012e-23 7.1878255383e-02
0.10655            2.7367460483e-22 5.1308761560e-22 1.9203781234e-01 3.2424701358e-22 4.8070291651e-22 1.2396549515e-01 -5.0572408748e-23 3.2384699092e-23 6.8072317188e-02
0.116933           -2.3319260159e-22 3.4793336266e-22 2.2392724167e-01 -2.2512004407e-22 3.3447213779e-22 1.5908073296e-01 -8.0725575259e-24 1.3461224871e-23 6.4846508711e-02
0.127316           -6.5706542249e-24 2.0687821516e-22 2.3816848628e-01 -2.2671090024e-23 1.0130654085e-22 1.7601540045e-01 1.6100435799e-23 1.0557167431e-22 6.2153085825e-02
0.1377             -3.0482754463e-22 1.2166219908e-23 2.2664251704e-01 -3.7222892593e-22 1.2196714354e-23 1.6698151999e-01 6.7401381297e-23 -3.0494445757e-26 5.9660997055e-02
0.148083           3.0248417644e-22 -3.3693115204e-24 2.2992767971e-01 2.1812525927e-22 -1.4849288223e-23 1.7242258408e-01 8.4358917174e-23 1.1479976702e-23 5.7505095636e-02
0.158467           -3.5843169345e-22 -1.2331042659e-22 2.3068166734e-01 -3.0734923196e-22 -8.5058549628e-23 1.7510988621e-01 -5.1082461485e-23 -3.8251876961e-23 5.5571781131e-02
0.16885            -2.4741838294e-22 -9.5347926441e-23 2.2512028630e-01 -1.8147551353e-22 -4.1342947828e-23 1.7129633100e-01 -6.5942869409e-23 -5.4004978613e-23 5.3823955303e-02
0.179233           -9.8780221309e-24 -2.2774563845e-22 2.2767782280e-01 1.8321066758e-22 -1.1133475413e-22 1.7544920766e-01 -1.9308868972e-22 -1.1641088433e-22 5.2228615138e-02
0.189617           1.2195137821e-22 2.8335122372e-22 2.2768961310e-01 3.4189956167e-23 2.4998910543e-22 1.7692151615e-01 8.7761422041e-23 3.3362118289e-23 5.0768096945e-02
0.2                -1.8711854880e-22 -1.7519929976e-22 2.2730272153e-01 -1.3551906769e-22 -1.0682153739e-22 1.7787552422e-01 -5.1599481108e-23 -6.8377762369e-23 4.9427197307e-02
0.21               -1.1322312443e-22 -4.0369279967e-23 2.2617912691e-01 -1.1417082398e-22 -1.1095890218e-22 1.7794752859e-01 9.4769954854e-25 7.0589622218e-23 4.8231598325e-02
0.22               -3.6440242861e-22 -1.4381165050e-22 2.2587765465e-01 -3.7724003095e-22 -2.0484225136e-22 1.7873142423e-01 1.2837602338e-23 6.1030600864e-23 4.7146230420e-02
0.23               -5.4224549487e-23 2.1107047932e-22 2.2253396817e-01 -6.5173639728e-23 2.2330898618e-22 1.7647152085e-01 1.0949090241e-23 -1.2238506859e-23 4.6062447315e-02
0.24               -5.9222553313e-22 -3.8922823582e-22 2.3820477577e-01 -4.7765831097e-22 -2.9473222967e-22 1.9301365423e-01 -1.1456722216e-22 -9.4496006155e-23 4.5191121535e-02
0.25               -1.7903455761e-22 -8.6121315542e-23 2.3045713471e-01 -8.8087390542e-23 -8.2746538745e-23 1.8619385873e-01 -9.0947167063e-23 -3.3747767973e-24 4.4263275988e-02
0.26               -2.0829659662e-22 -8.0037373209e-22 2.2958614312e-01 -1.9230524843e-22 -6.4454239769e-22 1.8620567950e-01 -1.5991348192e-23 -1.5583133441e-22 4.3380463618e-02
0.27               4.5876880153e-22 1.6863793138e-22 2.2926185076e-01 4.9435179496e-22 1.6319673900e-22 1.8671253629e-01 -3.5582993430e-23 5.4411923814e-24 4.2549314466e-02
0.28               -5.7065714619e-22 -7.4135898122e-22 2.3130539474e-01 -5.2982074289e-22 -6.3679836513e-22 1.8953043690e-01 -4.0836403297e-23 -1.0456061609e-22 4.1774957843e-02
0.29               6.2515866205e-23 3.5369554198e-22 2.2551032042e-01 6.8007386384e-23 2.4657522317e-22 1.8449375551e-01 -5.4915201794e-24 1.0712031881e-22 4.1016564910e-02
0.3                -3.0204503345e-22 1.4072472358e-22 2.2712779272e-01 -3.0228086723e-22 1.5933838795e-22 1.8683326076e-01 2.3583377992e-25 -1.8613664373e-23 4.0294531964e-02
0.31               3.9243483429e-22 3.9125090813e-22 2.2863377715e-01 3.0050981901e-22 3.1478515302e-22 1.8902144363e-01 9.1925015286e-23 7.6465755117e-23 3.9612333519e-02
0.32               2.5674427712e-22 -1.6720194247e-22 2.2725315894e-01 3.0035981080e-22 -1.8757025561e-22 1.8826379648e-01 -4.3615533681e-23 2.0368313140e-23 3.8989362454e-02
0.33               -3.0715579101e-22 -5.8671051237e-22 2.2733913851e-01 -3.5877032610e-22 -5.7650366514e-22 1.8899052232e-01 5.1614535093e-23 -1.0206847226e-23 3.8348616190e-02
0.34               2.7167710311e-22 5.4232286318e-22 2.3799779744e-01 2.0078494888e-22 4.2884190563e-22 2.0027349178e-01 7.0892154238e-23 1.1348095755e-22 3.7724305656e-02
0.35               -6.6164274971e-23 -1.0169520685e-22 2.3277199950e-01 -6.4819358168e-23 -7.4272272806e-23 1.9564272619e-01 -1.3449168037e-24 -2.7422934044e-23 3.7129273313e-02
0.36               -6.6342062619e-22 -6.7500317139e-22 2.3243595388e-01 -6.4337747953e-22 -6.5895818220e-22 1.9587456782e-01 -2.0043146662e-23 -1.6044989194e-23 3.6561386058e-02
0.37               -3.5521506622e-22 -2.1793299084e-22 2.2850623465e-01 -3.7780807149e-22 -1.3022828613e-22 1.9246228030e-01 2.2593005266e-23 -8.7704704712e-23 3.6043954348e-02
0.38               -2.6507233480e-22 -1.8787151183e-22 2.3899670288e-01 -2.2822769930e-22 -1.8664385177e-22 2.0345924504e-01 -3.6844635501e-23 -1.2276600643e-24 3.5537457850e-02
0.39               -3.9669152943e-24 1.1542753994e-22 2.2823486807e-01 1.0144709633e-22 2.2468783137e-22 1.9316675006e-01 -1.0541401162e-22 -1.0926029143e-22 3.5068118006e-02
0.4                -3.0338972454e-22 -5.2444477491e-22 2.2136802770e-01 -2.2111186875e-22 -3.6044460228e-22 1.8677955290e-01 -8.2277855792e-23 -1.6400017263e-22 3.4588474805e-02
0.41               -1.6371001583e-22 -2.7184826540e-22 2.2774473710e-01 -2.2876721701e-22 -2.9887786831e-22 1.9360165995e-01 6.5057201183e-23 2.7029602906e-23 3.4143077158e-02
0.42               3.4037668956e-22 2.8582470627e-22 2.3280799440e-01 3.3351890484e-22 3.3246722386e-22 1.9906679475e-01 6.8577847245e-24 -4.6642517583e-23 3.3741199648e-02
0.43               -1.9494260026e-23 -2.6351001085e-23 2.3278010109e-01 -1.1951492896e-22 -7.8434055198e-23 1.9948340750e-01 1.0002066894e-22 5.2083054113e-23 3.3296693586e-02
0.44               -4.8485335669e-22 -8.1893818456e-22 2.3197065947e-01 -4.2998089481e-22 -7.6453525545e-22 1.9909649954e-01 -5.4872461880e-23 -5.4402929114e-23 3.2874159934e-02
0.45               2.0254097334e-22 -1.1161913675e-22 2.3297331106e-01 3.9095028590e-22 -1.9142215831e-23 2.0049899018e-01 -1.8840931256e-22 -9.2476920923e-23 3.2474320888e-02
0.46               1.2541960602e-22 1.9156399045e-22 2.3095863148e-01 1.4803139249e-22 1.5733535664e-22 1.9889468899e-01 -2.2611786467e-23 3.4228633818e-23 3.2063942492e-02
0.47               2.2223119219e-22 5.5356471842e-22 2.3407701464e-01 8.9893348571e-23 4.4085397486e-22 2.0241227557e-01 1.3233784362e-22 1.1271074357e-22 3.1664739070e-02
0.48               5.3189774050e-22 3.5320549130e-22 2.3131258092e-01 5.6918808709e-22 2.1049469945e-22 2.0002317655e-01 -3.7290346599e-23 1.4271079185e-22 3.1289404368e-02
0.49               -1.2469332424e-22 3.9010555229e-24 2.3664463443e-01 -2.3515680724e-22 -6.9023221049e-23 2.0570447317e-01 1.1046348300e-22 7.2924276571e-23 3.0940161258e-02
0.5                -6.2895706186e-22 -9.9795952619e-22 2.3661700927e-01 -6.5818163612e-22 -9.1131408979e-22 2.0604661437e-01 2.9224574260e-23 -8.6645436394e-23 3.0570394894e-02
0.51               4.2625566449e-22 3.7519387185e-22 2.3563490876e-01 3.1588300542e-22 3.2583019698e-22 2.0542196662e-01 1.1037265907e-22 4.9363674873e-23 3.0212942144e-02
0.52               -4.9802718886e-22 -1.0071252265e-21 2.3666502419e-01 -3.4118302201e-22 -9.2480598507e-22 2.0680248970e-01 -1.5684416685e-22 -8.2319241387e-23 2.9862534489e-02
0.53               -3.3058320680e-22 -1.2103392748e-22 2.3592001628e-01 -4.6162263000e-22 -2.3876211877e-22 2.0639895537e-01 1.3103942321e-22 1.1772819129e-22 2.9521060911e-02
0.54               -2.2878936512e-22 -3.0968344865e-22 2.3587483431e-01 -3.9620131585e-22 -3.1953020318e-22 2.0667471741e-01 1.6741195073e-22 9.8467545307e-24 2.9200116904e-02
0.55               4.9720222602e-22 3.5107620012e-22 2.3745278985e-01 4.7966309666e-22 2.9462873940e-22 2.0857851522e-01 1.7539129361e-23 5.6447460714e-23 2.8874274621e-02
0.56               -2.4472386192e-22 -1.6575573116e-22 2.3457078360e-01 -1.8223157066e-22 -1.6705399583e-22 2.0597379047e-01 -6.2492291259e-23 1.2982646722e-24 2.8596993134e-02
0.57               1.3237228686e-22 2.8318565766e-22 2.3135679135e-01 3.7075756093e-23 2.0050050418e-22 2.0312134679e-01 9.5296530763e-23 8.2685153486e-23 2.8235444556e-02
0.58               3.9896637425e-22 8.1610153111e-23 2.3165947272e-01 4.4930654447e-22 8.4101725309e-23 2.0369723234e-01 -5.0340170222e-23 -2.4915721982e-24 2.7962240382e-02
0.59               -1.9024936253e-22 -7.5407133773e-23 2.3935543052e-01 -1.7111308470e-22 -4.9838933458e-24 2.1173591041e-01 -1.9136277823e-23 -7.0423240427e-23 2.7619520114e-02
0.6                -3.9003836929e-22 -5.1825167848e-22 2.3867842853e-01 -3.3166324880e-22 -4.7887789092e-22 2.1137345623e-01 -5.8375120494e-23 -3.9373787558e-23 2.7304972298e-02
0.609524           1.5909754019e-23 1.5763317322e-22 2.3507613974e-01 -8.0588039035e-23 1.3686574350e-22 2.0805847345e-01 9.6497793054e-23 2.0767429717e-23 2.7017666287e-02
0.619048           1.0408624080e-21 1.0071347782e-21 2.3819395787e-01 1.1125217762e-21 1.0803561558e-21 2.1145559756e-01 -7.1659368250e-23 -7.3221377652e-23 2.6738360318e-02
0.628571           -8.2619287003e-22 -1.0990875678e-21 2.3466458994e-01 -7.1396459288e-22 -9.5461633675e-22 2.0819801478e-01 -1.1222827715e-22 -1.4447123102e-22 2.6466575165e-02
0.638095           3.5864797259e-22 2.5214585457e-22 2.3552447830e-01 4.3537936957e-22 2.7633325620e-22 2.0930215471e-01 -7.6731396976e-23 -2.4187401628e-23 2.6222323586e-02
0.647619           7.0496328480e-22 8.1947433935e-22 2.3774429649e-01 9.7530586343e-22 8.3492150538e-22 2.1178776341e-01 -2.7034257863e-22 -1.5447166030e-23 2.5956533077e-02
0.657143           -3.4271428589e-22 -1.0010749737e-22 2.3705734720e-01 -3.4562001163e-22 -1.3751142640e-22 2.1139049740e-01 2.9057257367e-24 3.7403929039e-23 2.5666849803e-02
0.666667           9.4731561683e-24 -2.3911349853e-22 2.3520217965e-01 -7.6660973025e-23 -3.6319542801e-22 2.0980732390e-01 8.6134129193e-23 1.2408192948e-22 2.5394855753e-02
0.67619            -1.7693967922e-22 -2.2140475661e-22 2.4434282012e-01 -2.5167061399e-22 -2.6381223768e-22 2.1924048342e-01 7.4730934775e-23 4.2407481064e-23 2.5102336699e-02
0.685714           -2.1170192448e-22 -3.2212242958e-22 2.4098131594e-01 -1.5096306811e-22 -3.5013884800e-22 2.1610299010e-01 -6.0738856367e-23 2.8016418416e-23 2.4878325843e-02
0.695238           -5.4649417185e-22 -2.7735858837e-22 2.4088544096e-01 -6.1571390420e-22 -3.5220962248e-22 2.1625037500e-01 6.9219732346e-23 7.4851034105e-23 2.4635065957e-02
0.704762           -4.3826151155e-22 -8.3142343166e-22 2.4143756358e-01 -2.9802409514e-22 -6.5562499646e-22 2.1704210078e-01 -1.4023741641e-22 -1.7579843520e-22 2.4395462806e-02
0.714286           2.1146649439e-22 5.2803853785e-22 2.4050313616e-01 -6.1278932704e-23 4.1800502592e-22 2.1635136238e-01 2.7274542709e-22 1.1003351193e-22 2.4151773779e-02
0.72381            -8.7966348043e-23 -1.6785680535e-22 2.4319558585e-01 -2.3685101175e-23 -1.9491745696e-22 2.1928783190e-01 -6.4281246868e-23 2.7060651606e-23 2.3907753957e-02
0.733333           -4.2667121593e-22 -3.0803390512e-22 2.4268187681e-01 -3.5005419335e-22 -2.9121404919e-22 2.1901351429e-01 -7.6617022579e-23 -1.6819855935e-23 2.3668362521e-02
0.742857           -2.2262491147e-22 -1.5774876187e-22 2.3703438084e-01 6.4891521333e-23 -2.8184914009e-23 2.1361658086e-01 -2.8751643280e-22 -1.2956384786e-22 2.3417799982e-02
0.752381           -2.6080449934e-22 -4.8122985259e-22 2.3652411340e-01 -9.0523227356e-23 -4.0790804176e-22 2.1333385207e-01 -1.7028127198e-22 -7.3321810832e-23 2.3190261337e-02
0.761905           -8.1336183390e-22 -7.0267372656e-22 2.3905112454e-01 -1.1595333863e-21 -8.7864641902e-22 2.1607601050e-01 3.4617155236e-22 1.7597269246e-22 2.2975114045e-02
0.771429           9.3886010378e-23 1.1809558298e-22 2.3580440458e-01 7.1925855913e-23 9.8057985751e-23 2.1306000022e-01 2.1960154465e-23 2.0037597232e-23 2.2744404353e-02
0.780952           6.4035408895e-23 -1.1673133856e-22 2.3982443415e-01 3.2460512268e-22 3.5780366235e-23 2.1732142404e-01 -2.6056971378e-22 -1.5251170479e-22 2.2503010107e-02
0.790476           3.8336770010e-22 5.2684420795e-22 2.4122548301e-01 4.3441998621e-22 5.3590607353e-22 2.1894858504e-01 -5.1052286116e-23 -9.0618655782e-24 2.2276897973e-02
0.8                2.2785096095e-22 2.3705561909e-22 2.4324708400e-01 2.3420981637e-22 2.6499300729e-22 2.2120010151e-01 -6.3588554250e-24 -2.7937388197e-23 2.2046982488e-02
0.809091           1.2939026818e-22 -2.6707868150e-22 2.4051264941e-01 4.5274669325e-23 -3.4050472773e-22 2.1862220477e-01 8.4115598855e-23 7.3426046231e-23 2.1890444645e-02
0.818182           -4.7769517514e-22 -3.6794886906e-23 2.3660653798e-01 -4.3699568343e-22 8.9623773443e-23 2.1493121552e-01 -4.0699491712e-23 -1.2641866035e-22 2.1675322458e-02
0.827273           -1.6839016901e-24 2.8880890660e-23 2.4151128165e-01 7.3231659035e-23 8.8481900446e-23 2.2004668390e-01 -7.4915560725e-23 -5.9601009786e-23 2.1464597754e-02
0.836364           -4.5053389742e-22 -5.4810908322e-22 2.4834348545e-01 -4.7448969523e-22 -6.1450322044e-22 2.2707805667e-01 2.3955797810e-23 6.6394137215e-23 2.1265428778e-02
0.845455           -2.3649726639e-21 -2.6117520565e-21 2.4538182697e-01 -2.4226617145e-21 -2.6419125740e-21 2.2432343344e-01 5.7689050598e-23 3.0160517547e-23 2.1058393534e-02
0.854545           -7.8843605793e-22 -7.1527367735e-22 2.3832536365e-01 -6.1899017799e-22 -6.1027975519e-22 2.1745201848e-01 -1.6944587994e-22 -1.0499392216e-22 2.0873345170e-02
0.863636           -1.4264127075e-21 -1.9495178846e-21 2.4282559292e-01 -1.6260032930e-21 -2.0920151586e-21 2.2218015910e-01 1.9959058543e-22 1.4249727402e-22 2.0645433816e-02
0.872727           -1.3582551838e-22 -2.1781878425e-22 2.4198010134e-01 1.2785188187e-22 -1.3087503257e-23 2.2159010404e-01 -2.6367740025e-22 -2.0473128100e-22 2.0389997303e-02
0.881818           -1.7730295467e-22 -2.1432382181e-22 2.4503356343e-01 -7.2351380641e-23 -1.0066677362e-22 2.2485643689e-01 -1.0495157403e-22 -1.1365704819e-22 2.0177126540e-02
0.890909           6.5116347023e-22 3.3129818362e-22 2.4652656864e-01 6.8551947782e-22 3.6127734585e-22 2.2655254597e-01 -3.4356007593e-23 -2.9979162231e-23 1.9974022663e-02
