# Force and moment coefficients
# dragDir         : (1.0000000000e+00 0.0000000000e+00 0.0000000000e+00)
# sideDir         : (0.0000000000e+00 0.0000000000e+00 -1.0000000000e+00)
# liftDir         : (0.0000000000e+00 1.0000000000e+00 0.0000000000e+00)
# rollAxis        : (1.0000000000e+00 0.0000000000e+00 0.0000000000e+00)
# pitchAxis       : (0.0000000000e+00 0.0000000000e+00 -1.0000000000e+00)
# yawAxis         : (0.0000000000e+00 1.0000000000e+00 0.0000000000e+00)
# magUInf         : 1.0000000000e+00
# lRef            : 1.0000000000e+00
# Aref            : 1.0000000000e+00
# CofR            : (0.0000000000e+00 0.0000000000e+00 0.0000000000e+00)
#
# Time            	Cd                	Cd(f)             	Cd(r)             	Cl                	Cl(f)             	Cl(r)             	CmPitch           	CmRoll            	CmYaw             	Cs                	Cs(f)             	Cs(r)             
0.609524          	3.1646023804e-01	1.5823011902e-01	1.5823011902e-01	8.0099099923e-01	-6.9656139971e-02	8.7064713920e-01	-4.7015163959e-01	6.9040664351e-22	2.0575210013e-22	1.7422693404e-21	1.0768867703e-21	6.6538257007e-22
0.619048          	3.1995502726e-01	1.5997751363e-01	1.5997751363e-01	8.1317616125e-01	-6.9799217888e-02	8.8297537914e-01	-4.7638729851e-01	1.8733770295e-21	1.8225240660e-21	4.3520496894e-21	3.9985489107e-21	3.5350077874e-22
0.628571          	3.2023619550e-01	1.6011809775e-01	1.6011809775e-01	8.0227039285e-01	-6.8195298573e-02	8.7046569142e-01	-4.6933049500e-01	-9.5990730534e-22	-6.0556176861e-22	-2.3111399453e-21	-1.7611317413e-21	-5.5000820405e-22
0.638095          	3.2472814111e-01	1.6236407055e-01	1.6236407055e-01	8.0353940008e-01	-6.9276446873e-02	8.7281584696e-01	-4.7104614692e-01	1.4367679382e-22	1.5944759069e-22	5.4353654410e-22	4.3121586274e-22	1.1232068136e-22
0.647619          	3.2671135418e-01	1.6335567709e-01	1.6335567709e-01	8.1580390787e-01	-6.7587305078e-02	8.8339121295e-01	-4.7548925901e-01	-9.5786846632e-22	-2.7613725536e-22	-2.5152930152e-21	-1.5337837630e-21	-9.8150925224e-22
0.657143          	3.2567770229e-01	1.6283885114e-01	1.6283885114e-01	8.1732637584e-01	-6.5452623240e-02	8.8277899908e-01	-4.7411581116e-01	-1.5964850719e-21	-1.3791449198e-21	-3.7426553963e-21	-3.2504726179e-21	-4.9218277839e-22
0.666667          	3.2700192288e-01	1.6350096144e-01	1.6350096144e-01	8.1193169068e-01	-6.4439191646e-02	8.7637088232e-01	-4.7040503698e-01	9.7608227151e-22	1.0177952149e-22	2.6013071073e-21	1.4024330752e-21	1.1988740322e-21
0.67619           	3.3243519398e-01	1.6621759699e-01	1.6621759699e-01	8.4692322315e-01	-6.5223711639e-02	9.1214693479e-01	-4.8868532321e-01	9.1275702428e-22	3.4569290462e-22	2.1903805974e-21	1.4408832033e-21	7.4949739407e-22
0.685714          	3.3744234558e-01	1.6872117279e-01	1.6872117279e-01	8.3467884787e-01	-6.4627339967e-02	8.9930618783e-01	-4.8196676390e-01	-4.2340843249e-22	-6.4426949163e-22	-1.0936539285e-21	-1.1910964559e-21	9.7442527357e-23
0.695238          	3.3858170639e-01	1.6929085319e-01	1.6929085319e-01	8.3736619616e-01	-6.3083244304e-02	9.0044944047e-01	-4.8176634239e-01	-1.0929389596e-21	-5.5467404318e-22	-2.9675040517e-21	-2.0384260690e-21	-9.2907798268e-22
0.704762          	3.4110748275e-01	1.7055374137e-01	1.7055374137e-01	8.3945329413e-01	-6.3147417255e-02	9.0260071139e-01	-4.8287406432e-01	-1.4424048795e-21	-2.2458920933e-21	-2.7899208847e-21	-3.6408525356e-21	8.5093165094e-22
0.714286          	3.4187938515e-01	1.7093969257e-01	1.7093969257e-01	8.3717624539e-01	-6.2419228064e-02	8.9959547346e-01	-4.8100735076e-01	2.2288056175e-22	2.8519537198e-22	3.7979686491e-22	4.7509380443e-22	-9.5296939521e-23
0.72381           	3.4554245395e-01	1.7277122698e-01	1.7277122698e-01	8.4852667803e-01	-6.2128329877e-02	9.1065500791e-01	-4.8639166889e-01	-1.7594378039e-22	-3.3572393085e-22	-3.0092195841e-22	-4.8618491005e-22	1.8526295164e-22
0.733333          	3.4734766818e-01	1.7367383409e-01	1.7367383409e-01	8.4808183772e-01	-6.1322536400e-02	9.0940437412e-01	-4.8536345526e-01	-8.5331304903e-22	-6.1606547306e-22	-1.9942092384e-21	-1.6131700923e-21	-3.8103914614e-22
0.742857          	3.4392962054e-01	1.7196481027e-01	1.7196481027e-01	8.3066980539e-01	-5.8731962666e-02	8.8940176806e-01	-4.7406686536e-01	-8.6642025705e-22	-8.0217654322e-22	-2.2325228174e-21	-1.9184379519e-21	-3.1408486550e-22
0.752381          	3.4710409188e-01	1.7355204594e-01	1.7355204594e-01	8.2718359357e-01	-5.9457220830e-02	8.8664081440e-01	-4.7304901762e-01	-1.3789606175e-21	-1.7482009229e-21	-2.7721918448e-21	-3.1342968453e-21	3.6210500051e-22
0.761905          	3.5263777283e-01	1.7631888641e-01	1.7631888641e-01	8.3767018435e-01	-5.9267275968e-02	8.9693746032e-01	-4.7810236814e-01	-1.6266478603e-21	-1.4054793575e-21	-3.6734173809e-21	-3.2421880479e-21	-4.3122933297e-22
0.771429          	3.5072882737e-01	1.7536441369e-01	1.7536441369e-01	8.2928886150e-01	-5.6966302392e-02	8.8625516389e-01	-4.7161073314e-01	1.8779265960e-22	2.3621736522e-22	4.2097407404e-22	4.4670440223e-22	-2.5730328198e-23
0.780952          	3.5489156377e-01	1.7744578189e-01	1.7744578189e-01	8.4631003891e-01	-5.6496814014e-02	9.0280685293e-01	-4.7965183347e-01	1.2807370270e-22	-2.3346019097e-22	8.4835126976e-22	1.9071544390e-22	6.5763582585e-22
0.790476          	3.5846099366e-01	1.7923049683e-01	1.7923049683e-01	8.5118419111e-01	-5.6856371680e-02	9.0804056279e-01	-4.8244846724e-01	8.3697934394e-22	7.5206506005e-22	1.9095432243e-21	1.7068366722e-21	2.0270655210e-22
0.8               	3.6190064017e-01	1.8095032009e-01	1.8095032009e-01	8.6112072131e-01	-5.5935716504e-02	9.1705643782e-01	-4.8649607716e-01	4.5569309082e-22	4.7410181200e-22	9.2964736558e-22	9.3892549479e-22	-9.2781292065e-24
0.809091          	3.6706315592e-01	1.8353157796e-01	1.8353157796e-01	8.4799336366e-01	-5.7036176543e-02	9.0502954020e-01	-4.8103285837e-01	2.5877397750e-22	-5.3418959604e-22	8.5637543125e-22	-1.0600188042e-22	9.6237731166e-22
0.818182          	3.6167033475e-01	1.8083516738e-01	1.8083516738e-01	8.3701059257e-01	-5.4700567162e-02	8.9171115973e-01	-4.7320586344e-01	-9.5549009931e-22	-7.3653929613e-23	-2.8617934485e-21	-1.5045506539e-21	-1.3572427946e-21
0.827273          	3.6767415014e-01	1.8383707507e-01	1.8383707507e-01	8.5638276903e-01	-5.4835983608e-02	9.1121875264e-01	-4.8302736812e-01	-3.1916836031e-24	5.7866995903e-23	1.1368992313e-22	1.1471195747e-22	-1.0220343392e-24
0.836364          	3.7641034916e-01	1.8820517458e-01	1.8820517458e-01	8.8287292437e-01	-5.5247175082e-02	9.3812009945e-01	-4.9668363727e-01	-9.0102844941e-22	-1.0961890548e-21	-2.2250181657e-21	-2.2086981377e-21	-1.6320027993e-23
0.845455          	3.7515842673e-01	1.8757921336e-01	1.8757921336e-01	8.7384225881e-01	-5.3841536312e-02	9.2768379513e-01	-4.9076266572e-01	-4.7297279245e-21	-5.2232609405e-21	-1.0992590610e-20	-1.0719556245e-20	-2.7303436438e-22
0.854545          	3.7314579161e-01	1.8657289580e-01	1.8657289580e-01	8.4699995892e-01	-5.3150433603e-02	9.0015039252e-01	-4.7665041306e-01	-1.5770053016e-21	-1.4307282445e-21	-4.0034872507e-21	-3.4324718698e-21	-5.7101538087e-22
0.863636          	3.7511866616e-01	1.8755933308e-01	1.8755933308e-01	8.7043283912e-01	-5.0433759138e-02	9.2086659825e-01	-4.8565017870e-01	-2.8526730226e-21	-3.8988703240e-21	-6.2736056058e-21	-7.0356731269e-21	7.6206752107e-22
0.872727          	3.7347589492e-01	1.8673794746e-01	1.8673794746e-01	8.7422326151e-01	-4.6846569119e-02	9.2106983063e-01	-4.8395819987e-01	-2.7190896703e-22	-4.3603168605e-22	-5.7141006254e-22	-7.2173671732e-22	1.5032665478e-22
0.881818          	3.7991033169e-01	1.8995516584e-01	1.8995516584e-01	8.8248926827e-01	-4.8832506718e-02	9.3132177499e-01	-4.9007714085e-01	-3.5458779731e-22	-4.2862645109e-22	-3.5245464370e-22	-6.0485377294e-22	2.5239912924e-22
0.890909          	3.8406833654e-01	1.9203416827e-01	1.9203416827e-01	8.8884787364e-01	-4.8627888383e-02	9.3747576203e-01	-4.9305182520e-01	1.3023066515e-21	6.6257480520e-22	3.7975967171e-21	2.5613731637e-21	1.2362235533e-21
0.9               	3.7970777138e-01	1.8985388569e-01	1.8985388569e-01	8.7770278356e-01	-4.5879525628e-02	9.2358230919e-01	-4.8473091741e-01	-1.7193141902e-22	1.2583639789e-22	-6.6732569135e-22	-2.0782644779e-22	-4.5949924356e-22
0.909091          	3.8769949623e-01	1.9384974811e-01	1.9384974811e-01	8.9218306630e-01	-4.6943544228e-02	9.3912661053e-01	-4.9303507738e-01	2.2366714776e-22	-2.5041012247e-22	8.8515736076e-22	1.9216855791e-22	6.9298880286e-22
0.918182          	3.8615753896e-01	1.9307876948e-01	1.9307876948e-01	8.7857247079e-01	-4.5082005299e-02	9.2365447609e-01	-4.8436824070e-01	3.2510861121e-22	4.1959135779e-22	5.2538294618e-22	6.8228283088e-22	-1.5689988470e-22
0.927273          	3.9110961913e-01	1.9555480956e-01	1.9555480956e-01	8.3292968661e-01	-5.0236170795e-02	8.8316585741e-01	-4.6670101410e-01	-5.5288491691e-22	-1.6387047688e-21	-6.0068642048e-22	-1.9390479790e-21	1.3383615585e-21
0.936364          	4.0072738520e-01	2.0036369260e-01	2.0036369260e-01	8.8295516077e-01	-4.8345197317e-02	9.3130035809e-01	-4.8982277770e-01	-1.0928059433e-21	-5.1942825387e-22	-2.7865176587e-21	-1.9126870832e-21	-8.7383057547e-22
0.945455          	4.0306542782e-01	2.0153271391e-01	2.0153271391e-01	8.7792429743e-01	-4.8528406376e-02	9.2645270381e-01	-4.8749055509e-01	5.5178720129e-22	8.4834817603e-22	6.0304996699e-22	1.1498731595e-21	-5.4682319253e-22
0.954545          	3.8375255370e-01	1.9187627685e-01	1.9187627685e-01	8.1904376387e-01	-4.0502400531e-02	8.5954616440e-01	-4.5002428247e-01	-5.0929925335e-22	-1.1742767290e-22	-1.3820465518e-21	-8.0845094881e-22	-5.7359560302e-22
0.963636          	4.0573327749e-01	2.0286663875e-01	2.0286663875e-01	8.8971570386e-01	-4.6282889283e-02	9.3599859315e-01	-4.9114074122e-01	-8.4707644449e-22	-7.0829267972e-22	-2.5490722482e-21	-1.9828288038e-21	-5.6624344439e-22
0.972727          	3.9976679158e-01	1.9988339579e-01	1.9988339579e-01	8.7458317625e-01	-4.2078780091e-02	9.1666195634e-01	-4.7937036821e-01	-2.6910359604e-21	-1.9638678690e-21	-7.2494326068e-21	-5.5885841724e-21	-1.6608484344e-21
0.981818          	4.0730789582e-01	2.0365394791e-01	2.0365394791e-01	8.9110960194e-01	-4.2754394528e-02	9.3386399647e-01	-4.8830919550e-01	-3.4341625119e-22	-6.4166790323e-22	-7.0257435241e-22	-9.9295507944e-22	2.9038072702e-22
0.990909          	4.1531206644e-01	2.0765603322e-01	2.0765603322e-01	8.9907764760e-01	-4.3933184338e-02	9.4301083194e-01	-4.9347200814e-01	-1.3239122182e-21	-1.2195357399e-21	-3.2663989337e-21	-2.8527352068e-21	-4.1366372692e-22
1                 	4.1297577384e-01	2.0648788692e-01	2.0648788692e-01	8.9470110214e-01	-4.1223634756e-02	9.3592473689e-01	-4.8857418583e-01	8.1089687725e-22	6.7234148827e-22	2.4264738785e-21	1.8855784275e-21	5.4089545100e-22
1.0087            	4.1149534892e-01	2.0574767446e-01	2.0574767446e-01	8.8839617944e-01	-3.9125664078e-02	9.2752184352e-01	-4.8332375380e-01	1.0254164176e-21	6.6067666389e-22	2.6085716907e-21	1.9649625092e-21	6.4360918146e-22
1.01739           	4.0028766686e-01	2.0014383343e-01	2.0014383343e-01	8.6606664013e-01	-3.4917413129e-02	9.0098405326e-01	-4.6795073319e-01	-1.0542049182e-21	-1.1113165807e-21	-2.2299475380e-21	-2.2262903496e-21	-3.6571883201e-24
1.02609           	4.1121252098e-01	2.0560626049e-01	2.0560626049e-01	8.7296479784e-01	-3.6783128894e-02	9.0974792673e-01	-4.7326552781e-01	-1.3335470532e-21	-1.0259042971e-21	-3.4270669640e-21	-2.7394377791e-21	-6.8762918488e-22
1.03478           	4.1579360021e-01	2.0789680011e-01	2.0789680011e-01	8.7255576627e-01	-3.7575603884e-02	9.1013137015e-01	-4.7385348702e-01	5.6547488373e-22	8.0873753557e-22	3.0386800734e-22	9.6067153924e-22	-6.5680353190e-22
1.04348           	4.1904563507e-01	2.0952281753e-01	2.0952281753e-01	8.9420406577e-01	-3.6093569301e-02	9.3029763507e-01	-4.8319560219e-01	4.4885940521e-22	8.2763733190e-22	5.3328871445e-22	1.0942816891e-21	-5.6099297468e-22
1.05217           	4.2168630805e-01	2.1084315403e-01	2.1084315403e-01	9.0022147721e-01	-3.5130746661e-02	9.3535222387e-01	-4.8524148527e-01	1.5090944186e-21	5.7366571436e-22	4.3508732622e-21	2.7491023455e-21	1.6017709167e-21
1.06087           	4.2417197348e-01	2.1208598674e-01	2.1208598674e-01	9.0319573070e-01	-3.4464771878e-02	9.3766050258e-01	-4.8606263723e-01	-2.5767698868e-22	-2.4122948401e-22	-4.0518893639e-22	-4.4382395221e-22	3.8635015818e-23
1.06957           	4.2806325203e-01	2.1403162601e-01	2.1403162601e-01	9.0988574736e-01	-3.4238770407e-02	9.4412451777e-01	-4.8918164409e-01	-6.2238215787e-22	-9.1709826400e-22	-1.1770659480e-21	-1.5056312380e-21	3.2856528999e-22
1.07826           	4.2785543213e-01	2.1392771607e-01	2.1392771607e-01	9.0680746401e-01	-3.2081172431e-02	9.3888863644e-01	-4.8548490443e-01	5.0166716120e-23	-3.0523702807e-23	6.9861931404e-22	3.1878595421e-22	3.7983335983e-22
1.08696           	4.3057406754e-01	2.1528703377e-01	2.1528703377e-01	9.1137260798e-01	-3.1317971816e-02	9.4269057980e-01	-4.8700427581e-01	1.1293044713e-21	5.2087725179e-22	3.7914658185e-21	2.4166101610e-21	1.3748556575e-21
1.09565           	4.2854903410e-01	2.1427451705e-01	2.1427451705e-01	8.8614262758e-01	-3.0527083192e-02	9.1666971077e-01	-4.7359839698e-01	2.5504435583e-21	1.6110968255e-21	7.6398820469e-21	5.4310378490e-21	2.2088441979e-21
1.10435           	4.4268276798e-01	2.2134138399e-01	2.2134138399e-01	9.3443857232e-01	-3.3210599285e-02	9.6764917160e-01	-5.0042988544e-01	-7.5815752455e-22	1.5338212034e-22	-3.3822100279e-21	-1.5377228936e-21	-1.8444871343e-21
1.11304           	4.3573394642e-01	2.1786697321e-01	2.1786697321e-01	9.0981434471e-01	-2.9109866339e-02	9.3892421105e-01	-4.8401703869e-01	-1.5703113417e-23	-5.7459448686e-22	2.8339134109e-22	-4.3289881631e-22	7.1629015740e-22
1.12174           	4.2906620605e-01	2.1453310303e-01	2.1453310303e-01	8.8695268730e-01	-2.6849383521e-02	9.1380207082e-01	-4.7032572717e-01	-1.6257449965e-21	-1.8125211433e-21	-4.2973254977e-21	-3.9611838922e-21	-3.3614160556e-22
1.13043           	4.5188100542e-01	2.2594050271e-01	2.2594050271e-01	9.2832074465e-01	-3.1444363078e-02	9.5976510773e-01	-4.9560473540e-01	-1.2630002574e-21	-1.0494012383e-21	-3.0377413866e-21	-2.5682719316e-21	-4.6946945498e-22
1.13913           	4.3499820598e-01	2.1749910299e-01	2.1749910299e-01	8.9559564902e-01	-2.3350260110e-02	9.1894590913e-01	-4.7114808462e-01	-2.9975945285e-22	-4.6298402039e-22	-7.8084439267e-22	-8.5340621672e-22	7.2561824050e-23
1.14783           	4.3812443531e-01	2.1906221766e-01	2.1906221766e-01	9.1327871187e-01	-2.2543052384e-02	9.3582176425e-01	-4.7918240832e-01	-2.1243924292e-21	-1.9829797862e-21	-5.2122947530e-21	-4.5891271627e-21	-6.2316759032e-22
1.15652           	4.4878867666e-01	2.2439433833e-01	2.2439433833e-01	9.2984864465e-01	-2.5181344545e-02	9.5502998919e-01	-4.9010566687e-01	3.4615064240e-22	5.2253084818e-22	6.5132285579e-22	8.4819227607e-22	-1.9686942028e-22
1.16522           	4.4795202769e-01	2.2397601385e-01	2.2397601385e-01	9.2313533988e-01	-2.3253335444e-02	9.4638867533e-01	-4.8482100539e-01	-8.9696164392e-23	-1.8835292903e-22	9.1154238736e-22	2.6741826465e-22	6.4412412271e-22
1.17391           	4.5150061713e-01	2.2575030856e-01	2.2575030856e-01	9.2982569614e-01	-2.2274694974e-02	9.5210039112e-01	-4.8718754304e-01	3.9692400676e-22	-3.6083726350e-22	1.9830906403e-21	6.3070805666e-22	1.3523825837e-21
1.18261           	4.5881172859e-01	2.2940586430e-01	2.2940586430e-01	9.4257559580e-01	-2.2861402662e-02	9.6543699847e-01	-4.9414920056e-01	1.6513605050e-21	2.2304150984e-21	3.9914985657e-21	4.2261643813e-21	-2.3466581554e-22
1.1913            	4.5280763124e-01	2.2640381562e-01	2.2640381562e-01	9.2595120203e-01	-1.9281089961e-02	9.4523229199e-01	-4.8225669098e-01	-1.3874918337e-21	-2.2630210560e-21	-2.7913107903e-21	-3.6586764512e-21	8.6736566087e-22
1.2               	4.6933792532e-01	2.3466896266e-01	2.3466896266e-01	9.6510151585e-01	-2.3219878994e-02	9.8832139484e-01	-5.0577063692e-01	1.1660409222e-21	1.3439359887e-21	3.2986867638e-21	2.9932793706e-21	3.0540739321e-22
1.20833           	4.6001189529e-01	2.3000594765e-01	2.3000594765e-01	9.3587744869e-01	-1.7690641099e-02	9.5356808978e-01	-4.8562936544e-01	-1.1846322642e-21	-1.0138091917e-21	-3.9345267079e-21	-2.9810725457e-21	-9.5345416226e-22
1.21667           	4.5371333182e-01	2.2685666591e-01	2.2685666591e-01	9.0383842481e-01	-1.6737510248e-02	9.2057593506e-01	-4.6865672265e-01	-1.8574252235e-21	-1.4638877362e-21	-6.3104410541e-21	-4.6191082633e-21	-1.6913327908e-21
1.225             	4.5240927756e-01	2.2620463878e-01	2.2620463878e-01	9.4104447976e-01	-1.2354223449e-02	9.5339870321e-01	-4.8287646333e-01	-2.5733834759e-21	-2.8468349367e-21	-6.4926423600e-21	-6.0931561166e-21	-3.9948624334e-22
1.23333           	4.5487897277e-01	2.2743948638e-01	2.2743948638e-01	9.2428842519e-01	-1.2126729138e-02	9.3641515433e-01	-4.7427094173e-01	-4.1440866406e-22	-8.8682905749e-22	-1.4022276965e-21	-1.5879429057e-21	1.8571520924e-22
1.24167           	4.6673280395e-01	2.3336640198e-01	2.3336640198e-01	9.3784255352e-01	-1.4149905560e-02	9.5199245908e-01	-4.8307118232e-01	-1.0467232454e-21	-2.3277095009e-21	-1.1311995276e-21	-2.8933092647e-21	1.7621097371e-21
1.25              	4.6847453153e-01	2.3423726577e-01	2.3423726577e-01	9.3672042259e-01	-1.3327660315e-02	9.5004808290e-01	-4.8168787161e-01	9.7710400713e-22	1.2876217157e-21	3.1855649057e-21	2.8804041685e-21	3.0516073717e-22
1.25833           	4.5523313788e-01	2.2761656894e-01	2.2761656894e-01	9.0404448323e-01	-3.5859375260e-03	9.0763042076e-01	-4.5560817914e-01	1.7914083487e-21	1.6636211234e-21	4.5795008365e-21	3.9533715416e-21	6.2612929487e-22
1.26667           	4.8133442165e-01	2.4066721083e-01	2.4066721083e-01	9.6176774687e-01	-1.4765270975e-02	9.7653301784e-01	-4.9564914441e-01	-2.6505993228e-22	-4.6714107140e-22	6.0085187420e-22	-1.6671513430e-22	7.6756700850e-22
1.275             	4.7734245529e-01	2.3867122765e-01	2.3867122765e-01	9.5239474359e-01	-1.0208836511e-02	9.6260358010e-01	-4.8640620831e-01	-3.8399697410e-22	-1.3710299724e-21	2.5423195313e-22	-1.2439139959e-21	1.4981459490e-21
1.28333           	4.7228212178e-01	2.3614106089e-01	2.3614106089e-01	9.4880829507e-01	-6.6464974319e-03	9.5545479251e-01	-4.8105064497e-01	-1.1946356051e-21	-1.9134581876e-21	-3.2844341119e-21	-3.5556752436e-21	2.7124113171e-22
1.29167           	4.7285458477e-01	2.3642729239e-01	2.3642729239e-01	9.5927389029e-01	-5.7024848107e-03	9.6497637510e-01	-4.8533942995e-01	7.1302852519e-22	5.7562590259e-22	2.3004544042e-21	1.7258531047e-21	5.7460129951e-22
1.3               	4.6983768737e-01	2.3491884369e-01	2.3491884369e-01	9.1882435231e-01	-4.9249727576e-03	9.2374932507e-01	-4.6433714891e-01	-1.5221062769e-21	-1.0862863290e-21	-5.4205452952e-21	-3.7965589766e-21	-1.6239863186e-21
1.30833           	4.8114788092e-01	2.4057394046e-01	2.4057394046e-01	9.3149072659e-01	-6.8041506028e-03	9.3829487719e-01	-4.7254951390e-01	-3.7220800640e-22	-4.3882452737e-22	-1.7658320026e-21	-1.3217405287e-21	-4.4409147393e-22
1.31667           	4.6961333241e-01	2.3480666621e-01	2.3480666621e-01	8.8538192943e-01	-2.9642785045e-03	8.8834620794e-01	-4.4565524322e-01	-5.8925565502e-22	-5.4616784796e-22	-1.5585564247e-21	-1.3254460603e-21	-2.3311036439e-22
1.325             	4.7668182883e-01	2.3834091442e-01	2.3834091442e-01	9.1918593369e-01	-1.2176809541e-03	9.2040361465e-01	-4.6081064780e-01	3.8045613293e-22	6.4123449935e-22	8.8926011884e-22	1.0858645588e-21	-1.9660443993e-22
1.33333           	4.7108186848e-01	2.3554093424e-01	2.3554093424e-01	9.1010773873e-01	1.1008075288e-03	9.0900693120e-01	-4.5395306184e-01	2.4057127927e-21	3.8837907110e-21	4.5798005878e-21	6.1736910048e-21	-1.5938904171e-21
1.34167           	4.8620164989e-01	2.4310082495e-01	2.4310082495e-01	9.2844435880e-01	-1.2812891496e-03	9.2972564795e-01	-4.6550346855e-01	1.0802762295e-21	6.8835860598e-22	3.7701989586e-21	2.5734580853e-21	1.1967408733e-21
1.35              	4.8323365650e-01	2.4161682825e-01	2.4161682825e-01	9.1626166892e-01	5.5405819900e-04	9.1570761072e-01	-4.5757677626e-01	-5.9747768757e-22	-1.1643003690e-22	-2.5151308046e-21	-1.3739954392e-21	-1.1411353654e-21
1.35833           	4.8578573104e-01	2.4289286552e-01	2.4289286552e-01	9.2118702288e-01	9.8516025590e-04	9.2020186262e-01	-4.5960835118e-01	2.1223709933e-22	-5.4800522964e-22	2.5302014419e-21	7.1709549130e-22	1.8131059506e-21
1.36667           	4.9152065326e-01	2.4576032663e-01	2.4576032663e-01	9.4126629250e-01	2.0361916315e-03	9.3923010087e-01	-4.6859695462e-01	1.1423032587e-21	5.9045952187e-22	3.6961966588e-21	2.4385578513e-21	1.2576388075e-21
1.375             	5.0000303928e-01	2.5000151964e-01	2.5000151964e-01	9.4856493435e-01	1.7125018668e-03	9.4685243249e-01	-4.7256996531e-01	-7.9654275366e-22	-1.4471234353e-21	-1.1963610151e-21	-2.0453039428e-21	8.4894292775e-22
1.38333           	4.9839141931e-01	2.4919570965e-01	2.4919570965e-01	9.6256448821e-01	5.8505401811e-03	9.5671394803e-01	-4.7543170393e-01	-1.5219976380e-21	-2.1251823342e-21	-3.8110656265e-21	-4.0307151474e-21	2.1964952093e-22
1.39167           	4.9880005511e-01	2.4940002755e-01	2.4940002755e-01	9.5265400800e-01	6.1236390809e-03	9.4653036892e-01	-4.7020336492e-01	-5.4976781835e-23	-1.3557694799e-22	6.5106764022e-22	1.8995687212e-22	4.6111076810e-22
1.4               	4.9905831107e-01	2.4952915553e-01	2.4952915553e-01	9.5174423909e-01	8.0497764669e-03	9.4369446262e-01	-4.6782234308e-01	1.2835577355e-22	2.1971175822e-22	-6.6410000154e-22	-1.1233824255e-22	-5.5176175899e-22
